 Gaussian 16, Revision C.01,
 Gaussian 16:  EM64L-G16RevC.01  3-Jul-2019

 ----------------------------------------------------------------------
 # qcisd/aug-cc-pvtz nosymm density=current pop=(chelpg,hirshfeld,npa,d
 ipole)
 ----------------------------------------------------------------------

 -----------------
 f2cs-wavefunction
 -----------------
 Symbolic Z-matrix:
 Charge =  0 Multiplicity = 1

                          Input orientation:
 ---------------------------------------------------------------------
 Center     Atomic      Atomic             Coordinates (Angstroms)
 Number     Number       Type             X           Y           Z
 ---------------------------------------------------------------------
      1          6           0        0.000000    0.000000   -0.520349
      2         16           0        0.000000    0.000000    1.088525
      3          9           0        0.000000   -1.055221   -1.295538
      4          9           0        0.000000    1.055221   -1.295538
 ---------------------------------------------------------------------

 SCF Done:  E(RHF) =  -634.356516237     A.U. after   12 cycles
 E2 =    -0.8397796583D+00 EUMP2 =    -0.63519629589557D+03

 Alpha  occ. eigenvalues --  -91.97679 -26.39142 -26.39139 -11.52115  -8.97994
 Alpha  occ. eigenvalues --   -6.66112  -6.65954  -6.65834  -1.75645  -1.68229
 Alpha  occ. eigenvalues --   -1.09560  -0.93047  -0.84484  -0.80330  -0.77661
 Alpha  occ. eigenvalues --   -0.72266  -0.70253  -0.59639  -0.42927  -0.40114
 Alpha virt. eigenvalues --    0.05195   0.05523   0.06416   0.08636   0.08680
 Alpha virt. eigenvalues --    0.10321   0.10836   0.12165   0.19602   0.20453
 Alpha virt. eigenvalues --    0.20782   0.22899   0.23388   0.26347   0.27013

 Mulliken charges:
               1
     1  C    0.343037
     2  S   -0.061423
     3  F   -0.140807
     4  F   -0.140807
 Sum of Mulliken charges =  -0.00000

 Dipole moment (field-independent basis, Debye):
    X=             -0.0000    Y=             -0.0000    Z=             -0.2579  Tot=              0.2579
 Quadrupole moment (field-independent basis, Debye-Ang):
   XX=            -27.3214   YY=            -30.1690   ZZ=            -27.9291
   XY=             -0.0000   XZ=             -0.0000   YZ=              0.0000

 ESP charges:
               1
     1  C    0.404553
     2  S   -0.154060
     3  F   -0.125246
     4  F   -0.125246
 Sum of ESP charges =  -0.00000

 Summary of Natural Population Analysis:

                                       Natural Population
                Natural  -----------------------------------------------
    Atom  No    Charge         Core      Valence    Rydberg      Total
 -----------------------------------------------------------------------
      C    1    0.59912      1.99949     3.27480    0.12660     5.40088
      S    2    0.00423      9.99837     5.86961    0.12779    15.99577
      F    3   -0.30168      1.99979     7.21991    0.08197     9.30168
      F    4   -0.30168      1.99979     7.21991    0.08197     9.30168
 =======================================================================
   * Total *    0.00000     15.99744    23.58424    0.41832    40.00000

 Normal termination of Gaussian 16 at Sat Sep  3 13:34:53 2022.
