 Gaussian 16, Revision C.01,
 Gaussian 16:  EM64L-G16RevC.01  3-Jul-2019

 ----------------------------------------------------------------------
 # qcisd/aug-cc-pvtz nosymm density=current pop=(chelpg,hirshfeld,npa,d
 ipole)
 ----------------------------------------------------------------------

 -----------------
 f2cs-wavefunction
 -----------------
 Symbolic Z-matrix:
 Charge =  0 Multiplicity = 1

                          Input orientation:
 ---------------------------------------------------------------------
 Center     Atomic      Atomic             Coordinates (Angstroms)
 Number     Number       Type             X           Y           Z
 ---------------------------------------------------------------------
      1          6           0        0.000000    0.000000   -0.520349
      2         16           0        0.000000    0.000000    1.078525
      3          9           0        0.000000   -1.055221   -1.295538
      4          9           0        0.000000    1.055221   -1.285538
 ---------------------------------------------------------------------

 SCF Done:  E(RHF) =  -634.357183856     A.U. after   12 cycles
 E2 =    -0.8391187704D+00 EUMP2 =    -0.63519630262629D+03

 Alpha  occ. eigenvalues --  -91.97509 -26.39161 -26.39017 -11.51856  -8.97876
 Alpha  occ. eigenvalues --   -6.66000  -6.65836  -6.65716  -1.75751  -1.68317
 Alpha  occ. eigenvalues --   -1.09858  -0.93090  -0.84619  -0.80416  -0.77617
 Alpha  occ. eigenvalues --   -0.72285  -0.70283  -0.59627  -0.43037  -0.40104
 Alpha virt. eigenvalues --    0.05350   0.05534   0.06415   0.08637   0.08682
 Alpha virt. eigenvalues --    0.10319   0.10833   0.12212   0.19577   0.20431
 Alpha virt. eigenvalues --    0.20887   0.23102   0.23427   0.26354   0.27114

 Mulliken charges:
               1
     1  C    0.339145
     2  S   -0.062068
     3  F   -0.141292
     4  F   -0.135784
 Sum of Mulliken charges =  -0.00000

 Dipole moment (field-independent basis, Debye):
    X=             -0.0000    Y=              0.0209    Z=             -0.2687  Tot=              0.2695
 Quadrupole moment (field-independent basis, Debye-Ang):
   XX=            -27.2814   YY=            -30.1397   ZZ=            -27.9286
   XY=              0.0000   XZ=             -0.0000   YZ=             -0.0220

 ESP charges:
               1
     1  C    0.413607
     2  S   -0.158090
     3  F   -0.129820
     4  F   -0.125697
 Sum of ESP charges =   0.00000

 Summary of Natural Population Analysis:

                                       Natural Population
                Natural  -----------------------------------------------
    Atom  No    Charge         Core      Valence    Rydberg      Total
 -----------------------------------------------------------------------
      C    1    0.59359      1.99946     3.27958    0.12737     5.40641
      S    2    0.00764      9.99831     5.86604    0.12800    15.99236
      F    3   -0.30166      1.99979     7.22004    0.08182     9.30166
      F    4   -0.29958      1.99979     7.21775    0.08205     9.29958
 =======================================================================
   * Total *   -0.00000     15.99736    23.58341    0.41923    40.00000

 Normal termination of Gaussian 16 at Sat Sep  3 18:39:46 2022.
