 Gaussian 16, Revision C.01,
 Gaussian 16:  EM64L-G16RevC.01  3-Jul-2019

 ----------------------------------------------------------------------
 # qcisd/aug-cc-pvtz nosymm density=current pop=(chelpg,hirshfeld,npa,d
 ipole)
 ----------------------------------------------------------------------

 -----------------
 f2cs-wavefunction
 -----------------
 Symbolic Z-matrix:
 Charge =  0 Multiplicity = 1

                          Input orientation:
 ---------------------------------------------------------------------
 Center     Atomic      Atomic             Coordinates (Angstroms)
 Number     Number       Type             X           Y           Z
 ---------------------------------------------------------------------
      1          6           0        0.000000    0.000000   -0.520349
      2         16           0       -0.010000    0.000000    1.078525
      3          9           0        0.000000   -1.055221   -1.295538
      4          9           0        0.000000    1.055221   -1.295538
 ---------------------------------------------------------------------

 SCF Done:  E(RHF) =  -634.356866203     A.U. after   12 cycles
 E2 =    -0.8395359043D+00 EUMP2 =    -0.63519640210717D+03

 Alpha  occ. eigenvalues --  -91.97613 -26.39010 -26.39007 -11.51899  -8.97975
 Alpha  occ. eigenvalues --   -6.66098  -6.65935  -6.65814  -1.75538  -1.68122
 Alpha  occ. eigenvalues --   -1.09884  -0.92971  -0.84410  -0.80259  -0.77541
 Alpha  occ. eigenvalues --   -0.72175  -0.70145  -0.59708  -0.43113  -0.40182
 Alpha virt. eigenvalues --    0.05276   0.05520   0.06433   0.08647   0.08685
 Alpha virt. eigenvalues --    0.10318   0.10819   0.12189   0.19611   0.20458
 Alpha virt. eigenvalues --    0.20849   0.23046   0.23428   0.26352   0.27024

 Mulliken charges:
               1
     1  C    0.341459
     2  S   -0.059492
     3  F   -0.140984
     4  F   -0.140984
 Sum of Mulliken charges =  -0.00000

 Dipole moment (field-independent basis, Debye):
    X=              0.0032    Y=              0.0000    Z=             -0.2244  Tot=              0.2244
 Quadrupole moment (field-independent basis, Debye-Ang):
   XX=            -27.2810   YY=            -30.1544   ZZ=            -27.9400
   XY=              0.0000   XZ=             -0.0095   YZ=             -0.0000

 ESP charges:
               1
     1  C    0.144082
     2  S   -0.066726
     3  F   -0.038678
     4  F   -0.038678
 Sum of ESP charges =  -0.00000

 Summary of Natural Population Analysis:

                                       Natural Population
                Natural  -----------------------------------------------
    Atom  No    Charge         Core      Valence    Rydberg      Total
 -----------------------------------------------------------------------
      C    1    0.59229      1.99946     3.28108    0.12716     5.40771
      S    2    0.01132      9.99831     5.86251    0.12786    15.98868
      F    3   -0.30181      1.99979     7.22015    0.08186     9.30181
      F    4   -0.30181      1.99979     7.22015    0.08186     9.30181
 =======================================================================
   * Total *    0.00000     15.99736    23.58389    0.41876    40.00000

 Normal termination of Gaussian 16 at Sat Sep  3 12:18:59 2022.
