 Gaussian 16, Revision C.01,
 Gaussian 16:  EM64L-G16RevC.01  3-Jul-2019

 ----------------------------------------------------------------------
 # qcisd/aug-cc-pvtz nosymm density=current pop=(chelpg,hirshfeld,npa,d
 ipole)
 ----------------------------------------------------------------------

 -----------------
 f2cs-wavefunction
 -----------------
 Symbolic Z-matrix:
 Charge =  0 Multiplicity = 1

                          Input orientation:
 ---------------------------------------------------------------------
 Center     Atomic      Atomic             Coordinates (Angstroms)
 Number     Number       Type             X           Y           Z
 ---------------------------------------------------------------------
      1          6           0        0.000000    0.000000   -0.520349
      2         16           0        0.000000   -0.010000    1.078525
      3          9           0        0.000000   -1.055221   -1.295538
      4          9           0        0.000000    1.055221   -1.295538
 ---------------------------------------------------------------------

 SCF Done:  E(RHF) =  -634.356860860     A.U. after   12 cycles
 E2 =    -0.8395360850D+00 EUMP2 =    -0.63519639694461D+03

 Alpha  occ. eigenvalues --  -91.97613 -26.39051 -26.38966 -11.51899  -8.97975
 Alpha  occ. eigenvalues --   -6.66098  -6.65935  -6.65814  -1.75538  -1.68122
 Alpha  occ. eigenvalues --   -1.09884  -0.92971  -0.84410  -0.80259  -0.77541
 Alpha  occ. eigenvalues --   -0.72175  -0.70145  -0.59708  -0.43113  -0.40181
 Alpha virt. eigenvalues --    0.05279   0.05518   0.06433   0.08647   0.08685
 Alpha virt. eigenvalues --    0.10318   0.10819   0.12189   0.19610   0.20459
 Alpha virt. eigenvalues --    0.20849   0.23045   0.23428   0.26352   0.27025

 Mulliken charges:
               1
     1  C    0.341445
     2  S   -0.059485
     3  F   -0.141250
     4  F   -0.140710
 Sum of Mulliken charges =  -0.00000

 Dipole moment (field-independent basis, Debye):
    X=              0.0000    Y=              0.0053    Z=             -0.2245  Tot=              0.2245
 Quadrupole moment (field-independent basis, Debye-Ang):
   XX=            -27.2811   YY=            -30.1542   ZZ=            -27.9401
   XY=              0.0000   XZ=              0.0000   YZ=             -0.0297

 ESP charges:
               1
     1  C    0.408762
     2  S   -0.153154
     3  F   -0.127602
     4  F   -0.128005
 Sum of ESP charges =  -0.00000

 Summary of Natural Population Analysis:

                                       Natural Population
                Natural  -----------------------------------------------
    Atom  No    Charge         Core      Valence    Rydberg      Total
 -----------------------------------------------------------------------
      C    1    0.59229      1.99946     3.28108    0.12716     5.40771
      S    2    0.01132      9.99831     5.86251    0.12786    15.98868
      F    3   -0.30225      1.99979     7.22056    0.08190     9.30225
      F    4   -0.30136      1.99979     7.21974    0.08183     9.30136
 =======================================================================
   * Total *    0.00000     15.99736    23.58389    0.41876    40.00000

 Normal termination of Gaussian 16 at Sat Sep  3 13:10:08 2022.
