 Gaussian 16, Revision C.01,
 Gaussian 16:  EM64L-G16RevC.01  3-Jul-2019

 ----------------------------------------------------------------------
 # qcisd/aug-cc-pvtz nosymm density=current pop=(chelpg,hirshfeld,npa,d
 ipole)
 ----------------------------------------------------------------------

 -----------------
 f2cs-wavefunction
 -----------------
 Symbolic Z-matrix:
 Charge =  0 Multiplicity = 1

                          Input orientation:
 ---------------------------------------------------------------------
 Center     Atomic      Atomic             Coordinates (Angstroms)
 Number     Number       Type             X           Y           Z
 ---------------------------------------------------------------------
      1          6           0        0.000000    0.000000   -0.520349
      2         16           0        0.000000    0.000000    1.078525
      3          9           0        0.000000   -1.055221   -1.295538
      4          9           0        0.000000    1.065221   -1.295538
 ---------------------------------------------------------------------

 SCF Done:  E(RHF) =  -634.356308793     A.U. after   12 cycles
 E2 =    -0.8401222728D+00 EUMP2 =    -0.63519643106576D+03

 Alpha  occ. eigenvalues --  -91.97691 -26.39109 -26.38826 -11.51951  -8.98049
 Alpha  occ. eigenvalues --   -6.66171  -6.66010  -6.65888  -1.75236  -1.67960
 Alpha  occ. eigenvalues --   -1.09905  -0.92784  -0.84230  -0.80072  -0.77402
 Alpha  occ. eigenvalues --   -0.72108  -0.70110  -0.59737  -0.43177  -0.40228
 Alpha virt. eigenvalues --    0.05188   0.05505   0.06441   0.08653   0.08693
 Alpha virt. eigenvalues --    0.10316   0.10812   0.12169   0.19611   0.20465
 Alpha virt. eigenvalues --    0.20824   0.22991   0.23446   0.26366   0.26977

 Mulliken charges:
               1
     1  C    0.343866
     2  S   -0.057222
     3  F   -0.139363
     4  F   -0.147281
 Sum of Mulliken charges =  -0.00000

 Dipole moment (field-independent basis, Debye):
    X=             -0.0000    Y=             -0.0325    Z=             -0.1931  Tot=              0.1959
 Quadrupole moment (field-independent basis, Debye-Ang):
   XX=            -27.2813   YY=            -30.1741   ZZ=            -27.9491
   XY=             -0.0000   XZ=             -0.0000   YZ=              0.0473

 ESP charges:
               1
     1  C    0.408609
     2  S   -0.150357
     3  F   -0.126539
     4  F   -0.131712
 Sum of ESP charges =  -0.00000

 Summary of Natural Population Analysis:

                                       Natural Population
                Natural  -----------------------------------------------
    Atom  No    Charge         Core      Valence    Rydberg      Total
 -----------------------------------------------------------------------
      C    1    0.59062      1.99946     3.28305    0.12688     5.40938
      S    2    0.01492      9.99830     5.85899    0.12779    15.98508
      F    3   -0.30091      1.99979     7.21928    0.08184     9.30091
      F    4   -0.30463      1.99980     7.22322    0.08161     9.30463
 =======================================================================
   * Total *    0.00000     15.99735    23.58453    0.41812    40.00000

 Normal termination of Gaussian 16 at Sat Sep  3 17:49:46 2022.
