 Gaussian 16, Revision C.01,
 Gaussian 16:  EM64L-G16RevC.01  3-Jul-2019

 ----------------------------------------------------------------------
 # qcisd/aug-cc-pvtz nosymm density=current pop=(chelpg,hirshfeld,npa,d
 ipole)
 ----------------------------------------------------------------------

 -----------------
 f2cs-wavefunction
 -----------------
 Symbolic Z-matrix:
 Charge =  0 Multiplicity = 1

                          Input orientation:
 ---------------------------------------------------------------------
 Center     Atomic      Atomic             Coordinates (Angstroms)
 Number     Number       Type             X           Y           Z
 ---------------------------------------------------------------------
      1          6           0        0.000000    0.000000   -0.520349
      2         16           0        0.000000    0.000000    1.078525
      3          9           0        0.000000   -1.055221   -1.295538
      4          9           0        0.000000    1.055221   -1.305538
 ---------------------------------------------------------------------

 SCF Done:  E(RHF) =  -634.356478561     A.U. after   12 cycles
 E2 =    -0.8399559932D+00 EUMP2 =    -0.63519643455371D+03

 Alpha  occ. eigenvalues --  -91.97717 -26.39000 -26.38855 -11.51942  -8.98073
 Alpha  occ. eigenvalues --   -6.66195  -6.66033  -6.65912  -1.75336  -1.67918
 Alpha  occ. eigenvalues --   -1.09912  -0.92855  -0.84201  -0.80107  -0.77463
 Alpha  occ. eigenvalues --   -0.72062  -0.70006  -0.59789  -0.43190  -0.40259
 Alpha virt. eigenvalues --    0.05209   0.05502   0.06451   0.08657   0.08689
 Alpha virt. eigenvalues --    0.10316   0.10804   0.12167   0.19643   0.20486
 Alpha virt. eigenvalues --    0.20809   0.22989   0.23428   0.26350   0.26929

 Mulliken charges:
               1
     1  C    0.343688
     2  S   -0.056942
     3  F   -0.140642
     4  F   -0.146105
 Sum of Mulliken charges =  -0.00000

 Dipole moment (field-independent basis, Debye):
    X=             -0.0000    Y=             -0.0209    Z=             -0.1799  Tot=              0.1811
 Quadrupole moment (field-independent basis, Debye-Ang):
   XX=            -27.2807   YY=            -30.1689   ZZ=            -27.9520
   XY=              0.0000   XZ=             -0.0000   YZ=              0.0224

 ESP charges:
               1
     1  C    0.407245
     2  S   -0.149303
     3  F   -0.126909
     4  F   -0.131034
 Sum of ESP charges =   0.00000

 Summary of Natural Population Analysis:

                                       Natural Population
                Natural  -----------------------------------------------
    Atom  No    Charge         Core      Valence    Rydberg      Total
 -----------------------------------------------------------------------
      C    1    0.59097      1.99946     3.28260    0.12697     5.40903
      S    2    0.01501      9.99830     5.85896    0.12773    15.98499
      F    3   -0.30195      1.99979     7.22025    0.08191     9.30195
      F    4   -0.30403      1.99980     7.22254    0.08169     9.30403
 =======================================================================
   * Total *   -0.00000     15.99735    23.58435    0.41830    40.00000

 Normal termination of Gaussian 16 at Sat Sep  3 19:05:13 2022.
