 Gaussian 16, Revision C.01,
 Gaussian 16:  EM64L-G16RevC.01  3-Jul-2019

 ----------------------------------------------------------------------
 # qcisd/aug-cc-pvtz nosymm density=current pop=(chelpg,hirshfeld,npa,d
 ipole)
 ----------------------------------------------------------------------

 -----------------
 f2cs-wavefunction
 -----------------
 Symbolic Z-matrix:
 Charge =  0 Multiplicity = 1

                          Input orientation:
 ---------------------------------------------------------------------
 Center     Atomic      Atomic             Coordinates (Angstroms)
 Number     Number       Type             X           Y           Z
 ---------------------------------------------------------------------
      1          6           0        0.000000   -0.010000   -0.520349
      2         16           0        0.000000    0.000000    1.078525
      3          9           0        0.000000   -1.055221   -1.295538
      4          9           0        0.000000    1.055221   -1.295538
 ---------------------------------------------------------------------

 SCF Done:  E(RHF) =  -634.356776872     A.U. after   12 cycles
 E2 =    -0.8395390164D+00 EUMP2 =    -0.63519631588816D+03

 Alpha  occ. eigenvalues --  -91.97613 -26.39335 -26.38682 -11.51900  -8.97975
 Alpha  occ. eigenvalues --   -6.66098  -6.65935  -6.65814  -1.75592  -1.68076
 Alpha  occ. eigenvalues --   -1.09885  -0.92992  -0.84414  -0.80284  -0.77535
 Alpha  occ. eigenvalues --   -0.72154  -0.70132  -0.59707  -0.43112  -0.40181
 Alpha virt. eigenvalues --    0.05280   0.05518   0.06432   0.08647   0.08686
 Alpha virt. eigenvalues --    0.10318   0.10819   0.12189   0.19610   0.20459
 Alpha virt. eigenvalues --    0.20848   0.23041   0.23429   0.26351   0.27020

 Mulliken charges:
               1
     1  C    0.341216
     2  S   -0.059408
     3  F   -0.132610
     4  F   -0.149198
 Sum of Mulliken charges =  -0.00000

 Dipole moment (field-independent basis, Debye):
    X=             -0.0000    Y=             -0.0703    Z=             -0.2245  Tot=              0.2353
 Quadrupole moment (field-independent basis, Debye-Ang):
   XX=            -27.2812   YY=            -30.1538   ZZ=            -27.9400
   XY=              0.0000   XZ=             -0.0000   YZ=              0.1265

 ESP charges:
               1
     1  C    0.410208
     2  S   -0.153632
     3  F   -0.123297
     4  F   -0.133279
 Sum of ESP charges =  -0.00000

 Summary of Natural Population Analysis:

                                       Natural Population
                Natural  -----------------------------------------------
    Atom  No    Charge         Core      Valence    Rydberg      Total
 -----------------------------------------------------------------------
      C    1    0.59235      1.99946     3.28102    0.12717     5.40765
      S    2    0.01131      9.99831     5.86252    0.12786    15.98869
      F    3   -0.29763      1.99979     7.21578    0.08206     9.29763
      F    4   -0.30603      1.99980     7.22454    0.08169     9.30603
 =======================================================================
   * Total *   -0.00000     15.99736    23.58386    0.41878    40.00000

 Normal termination of Gaussian 16 at Sat Sep  3 10:39:16 2022.
