 Gaussian 16, Revision C.01,
 Gaussian 16:  EM64L-G16RevC.01  3-Jul-2019

 ----------------------------------------------------------------------
 # qcisd/aug-cc-pvtz nosymm density=current pop=(chelpg,hirshfeld,npa,d
 ipole)
 ----------------------------------------------------------------------

 -----------------
 f2cs-wavefunction
 -----------------
 Symbolic Z-matrix:
 Charge =  0 Multiplicity = 1

                          Input orientation:
 ---------------------------------------------------------------------
 Center     Atomic      Atomic             Coordinates (Angstroms)
 Number     Number       Type             X           Y           Z
 ---------------------------------------------------------------------
      1          6           0        0.000000    0.000000   -0.510349
      2         16           0        0.000000    0.000000    1.078525
      3          9           0        0.000000   -1.055221   -1.295538
      4          9           0        0.000000    1.055221   -1.295538
 ---------------------------------------------------------------------

 SCF Done:  E(RHF) =  -634.356306252     A.U. after   12 cycles
 E2 =    -0.8401249427D+00 EUMP2 =    -0.63519643119424D+03

 Alpha  occ. eigenvalues --  -91.97752 -26.38715 -26.38712 -11.51766  -8.98152
 Alpha  occ. eigenvalues --   -6.66278  -6.66111  -6.65990  -1.75015  -1.67616
 Alpha  occ. eigenvalues --   -1.10273  -0.92654  -0.83919  -0.79880  -0.77266
 Alpha  occ. eigenvalues --   -0.71860  -0.69760  -0.59938  -0.43455  -0.40404
 Alpha virt. eigenvalues --    0.05223   0.05478   0.06487   0.08678   0.08697
 Alpha virt. eigenvalues --    0.10312   0.10773   0.12169   0.19684   0.20518
 Alpha virt. eigenvalues --    0.20831   0.23085   0.23467   0.26354   0.26836

 Mulliken charges:
               1
     1  C    0.344508
     2  S   -0.052630
     3  F   -0.145939
     4  F   -0.145939
 Sum of Mulliken charges =  -0.00000

 Dipole moment (field-independent basis, Debye):
    X=             -0.0000    Y=              0.0000    Z=             -0.1018  Tot=              0.1018
 Quadrupole moment (field-independent basis, Debye-Ang):
   XX=            -27.2398   YY=            -30.1685   ZZ=            -27.9780
   XY=             -0.0000   XZ=             -0.0000   YZ=              0.0000

 ESP charges:
               1
     1  C    0.409966
     2  S   -0.144519
     3  F   -0.132723
     4  F   -0.132723
 Sum of ESP charges =  -0.00000

 Summary of Natural Population Analysis:

                                       Natural Population
                Natural  -----------------------------------------------
    Atom  No    Charge         Core      Valence    Rydberg      Total
 -----------------------------------------------------------------------
      C    1    0.58273      1.99944     3.29048    0.12735     5.41727
      S    2    0.02589      9.99824     5.84819    0.12768    15.97411
      F    3   -0.30431      1.99980     7.22289    0.08163     9.30431
      F    4   -0.30431      1.99980     7.22289    0.08163     9.30431
 =======================================================================
   * Total *    0.00000     15.99727    23.58444    0.41829    40.00000

 Normal termination of Gaussian 16 at Sat Sep  3 11:03:28 2022.
