 Gaussian 16, Revision C.01,
 Gaussian 16:  EM64L-G16RevC.01  3-Jul-2019

 ----------------------------------------------------------------------
 # qcisd/aug-cc-pvtz nosymm density=current pop=(chelpg,hirshfeld,npa,d
 ipole)
 ----------------------------------------------------------------------

 -----------------
 f2cs-wavefunction
 -----------------
 Symbolic Z-matrix:
 Charge =  0 Multiplicity = 1

                          Input orientation:
 ---------------------------------------------------------------------
 Center     Atomic      Atomic             Coordinates (Angstroms)
 Number     Number       Type             X           Y           Z
 ---------------------------------------------------------------------
      1          6           0        0.000000    0.000000   -0.520349
      2         16           0        0.000000    0.000000    1.078525
      3          9           0        0.000000   -1.055221   -1.295538
      4          9           0        0.010000    1.055221   -1.295538
 ---------------------------------------------------------------------

 SCF Done:  E(RHF) =  -634.356864516     A.U. after   12 cycles
 E2 =    -0.8395378957D+00 EUMP2 =    -0.63519640241143D+03

 Alpha  occ. eigenvalues --  -91.97613 -26.39009 -26.39006 -11.51899  -8.97975
 Alpha  occ. eigenvalues --   -6.66098  -6.65935  -6.65815  -1.75536  -1.68120
 Alpha  occ. eigenvalues --   -1.09885  -0.92970  -0.84408  -0.80258  -0.77540
 Alpha  occ. eigenvalues --   -0.72174  -0.70144  -0.59709  -0.43114  -0.40182
 Alpha virt. eigenvalues --    0.05276   0.05520   0.06433   0.08647   0.08686
 Alpha virt. eigenvalues --    0.10318   0.10818   0.12189   0.19611   0.20459
 Alpha virt. eigenvalues --    0.20849   0.23046   0.23428   0.26352   0.27024

 Mulliken charges:
               1
     1  C    0.341467
     2  S   -0.059472
     3  F   -0.140979
     4  F   -0.141017
 Sum of Mulliken charges =  -0.00000

 Dipole moment (field-independent basis, Debye):
    X=             -0.0019    Y=             -0.0001    Z=             -0.2241  Tot=              0.2241
 Quadrupole moment (field-independent basis, Debye-Ang):
   XX=            -27.2810   YY=            -30.1544   ZZ=            -27.9399
   XY=             -0.0136   XZ=              0.0148   YZ=              0.0002

 ESP charges:
               1
     1  C    0.144084
     2  S   -0.066700
     3  F   -0.038678
     4  F   -0.038707
 Sum of ESP charges =   0.00000

 Summary of Natural Population Analysis:

                                       Natural Population
                Natural  -----------------------------------------------
    Atom  No    Charge         Core      Valence    Rydberg      Total
 -----------------------------------------------------------------------
      C    1    0.59226      1.99946     3.28111    0.12717     5.40774
      S    2    0.01136      9.99831     5.86246    0.12786    15.98864
      F    3   -0.30180      1.99979     7.22015    0.08186     9.30180
      F    4   -0.30182      1.99979     7.22017    0.08186     9.30182
 =======================================================================
   * Total *    0.00000     15.99736    23.58389    0.41875    40.00000

 Normal termination of Gaussian 16 at Sat Sep  3 16:59:28 2022.
