 Gaussian 16, Revision C.01,
 Gaussian 16:  EM64L-G16RevC.01  3-Jul-2019

 ----------------------------------------------------------------------
 # qcisd/aug-cc-pvtz nosymm density=current pop=(chelpg,hirshfeld,npa,d
 ipole)
 ----------------------------------------------------------------------

 -----------------
 f2cs-wavefunction
 -----------------
 Symbolic Z-matrix:
 Charge =  0 Multiplicity = 1

                          Input orientation:
 ---------------------------------------------------------------------
 Center     Atomic      Atomic             Coordinates (Angstroms)
 Number     Number       Type             X           Y           Z
 ---------------------------------------------------------------------
      1          6           0        0.000000    0.000000   -0.520349
      2         16           0        0.000000    0.000000    1.078525
      3          9           0        0.000000   -1.055221   -1.295538
      4          9           0        0.000000    1.045221   -1.295538
 ---------------------------------------------------------------------

 SCF Done:  E(RHF) =  -634.357311322     A.U. after   12 cycles
 E2 =    -0.8389490762D+00 EUMP2 =    -0.63519626039834D+03

 Alpha  occ. eigenvalues --  -91.97535 -26.39191 -26.38906 -11.51847  -8.97901
 Alpha  occ. eigenvalues --   -6.66024  -6.65860  -6.65740  -1.75868  -1.68262
 Alpha  occ. eigenvalues --   -1.09866  -0.93168  -0.84591  -0.80459  -0.77678
 Alpha  occ. eigenvalues --   -0.72231  -0.70172  -0.59679  -0.43050  -0.40136
 Alpha virt. eigenvalues --    0.05372   0.05530   0.06425   0.08641   0.08678
 Alpha virt. eigenvalues --    0.10320   0.10825   0.12209   0.19610   0.20452
 Alpha virt. eigenvalues --    0.20872   0.23098   0.23410   0.26337   0.27068

 Mulliken charges:
               1
     1  C    0.338924
     2  S   -0.061740
     3  F   -0.142657
     4  F   -0.134526
 Sum of Mulliken charges =  -0.00000

 Dipole moment (field-independent basis, Debye):
    X=              0.0000    Y=              0.0324    Z=             -0.2556  Tot=              0.2577
 Quadrupole moment (field-independent basis, Debye-Ang):
   XX=            -27.2807   YY=            -30.1353   ZZ=            -27.9304
   XY=             -0.0000   XZ=              0.0000   YZ=             -0.0473

 ESP charges:
               1
     1  C    0.409689
     2  S   -0.156192
     3  F   -0.129360
     4  F   -0.124138
 Sum of ESP charges =  -0.00000

 Summary of Natural Population Analysis:

                                       Natural Population
                Natural  -----------------------------------------------
    Atom  No    Charge         Core      Valence    Rydberg      Total
 -----------------------------------------------------------------------
      C    1    0.59395      1.99947     3.27912    0.12746     5.40605
      S    2    0.00773      9.99831     5.86602    0.12794    15.99227
      F    3   -0.30273      1.99979     7.22104    0.08189     9.30273
      F    4   -0.29895      1.99979     7.21704    0.08213     9.29895
 =======================================================================
   * Total *   -0.00000     15.99736    23.58322    0.41942    40.00000

 Normal termination of Gaussian 16 at Sat Sep  3 18:15:17 2022.
