 Gaussian 16, Revision C.01,
 Gaussian 16:  EM64L-G16RevC.01  3-Jul-2019

 ----------------------------------------------------------------------
 # qcisd/aug-cc-pvtz nosymm density=current pop=(chelpg,hirshfeld,npa,d
 ipole)
 ----------------------------------------------------------------------

 -----------------
 f2cs-wavefunction
 -----------------
 Symbolic Z-matrix:
 Charge =  0 Multiplicity = 1

                          Input orientation:
 ---------------------------------------------------------------------
 Center     Atomic      Atomic             Coordinates (Angstroms)
 Number     Number       Type             X           Y           Z
 ---------------------------------------------------------------------
      1          6           0        0.000000    0.000000   -0.530349
      2         16           0        0.000000    0.000000    1.078525
      3          9           0        0.000000   -1.055221   -1.295538
      4          9           0        0.000000    1.055221   -1.295538
 ---------------------------------------------------------------------

 SCF Done:  E(RHF) =  -634.357171414     A.U. after   12 cycles
 E2 =    -0.8389448266D+00 EUMP2 =    -0.63519611624091D+03

 Alpha  occ. eigenvalues --  -91.97471 -26.39304 -26.39302 -11.52030  -8.97797
 Alpha  occ. eigenvalues --   -6.65916  -6.65757  -6.65638  -1.76061  -1.68631
 Alpha  occ. eigenvalues --   -1.09510  -0.93281  -0.84903  -0.80640  -0.77814
 Alpha  occ. eigenvalues --   -0.72489  -0.70530  -0.59475  -0.42775  -0.39960
 Alpha virt. eigenvalues --    0.05338   0.05554   0.06381   0.08616   0.08671
 Alpha virt. eigenvalues --    0.10324   0.10865   0.12210   0.19536   0.20398
 Alpha virt. eigenvalues --    0.20864   0.23008   0.23387   0.26350   0.27184

 Mulliken charges:
               1
     1  C    0.338415
     2  S   -0.066584
     3  F   -0.135915
     4  F   -0.135915
 Sum of Mulliken charges =  -0.00000

 Dipole moment (field-independent basis, Debye):
    X=              0.0000    Y=             -0.0000    Z=             -0.3468  Tot=              0.3468
 Quadrupole moment (field-independent basis, Debye-Ang):
   XX=            -27.3224   YY=            -30.1398   ZZ=            -27.9004
   XY=              0.0000   XZ=              0.0000   YZ=              0.0000

 ESP charges:
               1
     1  C    0.410591
     2  S   -0.162753
     3  F   -0.123919
     4  F   -0.123919
 Sum of ESP charges =   0.00000

 Summary of Natural Population Analysis:

                                       Natural Population
                Natural  -----------------------------------------------
    Atom  No    Charge         Core      Valence    Rydberg      Total
 -----------------------------------------------------------------------
      C    1    0.60177      1.99949     3.27175    0.12699     5.39823
      S    2   -0.00318      9.99838     5.87674    0.12806    16.00318
      F    3   -0.29930      1.99979     7.21740    0.08211     9.29930
      F    4   -0.29930      1.99979     7.21740    0.08211     9.29930
 =======================================================================
   * Total *   -0.00000     15.99744    23.58329    0.41927    40.00000

 Normal termination of Gaussian 16 at Sat Sep  3 11:28:05 2022.
