 Gaussian 16, Revision C.01,
 Gaussian 16:  EM64L-G16RevC.01  3-Jul-2019

 ----------------------------------------------------------------------
 # qcisd/aug-cc-pvtz nosymm density=current pop=(chelpg,hirshfeld,npa,d
 ipole)
 ----------------------------------------------------------------------

 -----------------
 f2cs-wavefunction
 -----------------
 Symbolic Z-matrix:
 Charge =  0 Multiplicity = 1

                          Input orientation:
 ---------------------------------------------------------------------
 Center     Atomic      Atomic             Coordinates (Angstroms)
 Number     Number       Type             X           Y           Z
 ---------------------------------------------------------------------
      1          6           0        0.010000    0.000000   -0.520349
      2         16           0        0.000000    0.000000    1.078525
      3          9           0        0.000000   -1.055221   -1.295538
      4          9           0        0.000000    1.055221   -1.295538
 ---------------------------------------------------------------------

 SCF Done:  E(RHF) =  -634.356833184     A.U. after   12 cycles
 E2 =    -0.8395445924D+00 EUMP2 =    -0.63519637777689D+03

 Alpha  occ. eigenvalues --  -91.97614 -26.39008 -26.39005 -11.51899  -8.97976
 Alpha  occ. eigenvalues --   -6.66099  -6.65936  -6.65816  -1.75535  -1.68119
 Alpha  occ. eigenvalues --   -1.09884  -0.92969  -0.84406  -0.80257  -0.77540
 Alpha  occ. eigenvalues --   -0.72173  -0.70143  -0.59709  -0.43113  -0.40182
 Alpha virt. eigenvalues --    0.05255   0.05535   0.06435   0.08647   0.08685
 Alpha virt. eigenvalues --    0.10318   0.10818   0.12188   0.19612   0.20456
 Alpha virt. eigenvalues --    0.20849   0.23048   0.23429   0.26348   0.27023

 Mulliken charges:
               1
     1  C    0.341505
     2  S   -0.059392
     3  F   -0.141057
     4  F   -0.141057
 Sum of Mulliken charges =  -0.00000

 Dipole moment (field-independent basis, Debye):
    X=              0.0069    Y=              0.0000    Z=             -0.2239  Tot=              0.2240
 Quadrupole moment (field-independent basis, Debye-Ang):
   XX=            -27.2806   YY=            -30.1547   ZZ=            -27.9403
   XY=              0.0000   XZ=             -0.0412   YZ=             -0.0000

 ESP charges:
               1
     1  C    0.144073
     2  S   -0.066675
     3  F   -0.038699
     4  F   -0.038699
 Sum of ESP charges =  -0.00000

 Summary of Natural Population Analysis:

                                       Natural Population
                Natural  -----------------------------------------------
    Atom  No    Charge         Core      Valence    Rydberg      Total
 -----------------------------------------------------------------------
      C    1    0.59225      1.99946     3.28112    0.12716     5.40775
      S    2    0.01140      9.99831     5.86243    0.12786    15.98860
      F    3   -0.30183      1.99979     7.22017    0.08186     9.30183
      F    4   -0.30183      1.99979     7.22017    0.08186     9.30183
 =======================================================================
   * Total *    0.00000     15.99736    23.58389    0.41875    40.00000

 Normal termination of Gaussian 16 at Sat Sep  3 09:21:22 2022.
