 Gaussian 16, Revision C.01,
 Gaussian 16:  EM64L-G16RevC.01  3-Jul-2019

 ----------------------------------------------------------------------
 # qcisd/aug-cc-pvtz nosymm density=current pop=(chelpg,hirshfeld,npa,d
 ipole)
 ----------------------------------------------------------------------

 -----------------
 f2cs-wavefunction
 -----------------
 Symbolic Z-matrix:
 Charge =  0 Multiplicity = 1

                          Input orientation:
 ---------------------------------------------------------------------
 Center     Atomic      Atomic             Coordinates (Angstroms)
 Number     Number       Type             X           Y           Z
 ---------------------------------------------------------------------
      1          6           0        0.000000    0.000000   -0.520349
      2         16           0        0.000000    0.000000    1.068525
      3          9           0        0.000000   -1.055221   -1.295538
      4          9           0        0.000000    1.055221   -1.295538
 ---------------------------------------------------------------------

 SCF Done:  E(RHF) =  -634.357061247     A.U. after   12 cycles
 E2 =    -0.8392853582D+00 EUMP2 =    -0.63519634660548D+03

 Alpha  occ. eigenvalues --  -91.97543 -26.38876 -26.38873 -11.51679  -8.97955
 Alpha  occ. eigenvalues --   -6.66083  -6.65914  -6.65793  -1.75430  -1.68014
 Alpha  occ. eigenvalues --   -1.10215  -0.92892  -0.84336  -0.80188  -0.77421
 Alpha  occ. eigenvalues --   -0.72083  -0.70037  -0.59777  -0.43302  -0.40249
 Alpha virt. eigenvalues --    0.05362   0.05512   0.06451   0.08660   0.08690
 Alpha virt. eigenvalues --    0.10314   0.10801   0.12215   0.19618   0.20464
 Alpha virt. eigenvalues --    0.20906   0.23200   0.23467   0.26358   0.27035

 Mulliken charges:
               1
     1  C    0.340044
     2  S   -0.057726
     3  F   -0.141159
     4  F   -0.141159
 Sum of Mulliken charges =  -0.00000

 Dipole moment (field-independent basis, Debye):
    X=             -0.0000    Y=             -0.0000    Z=             -0.1906  Tot=              0.1906
 Quadrupole moment (field-independent basis, Debye-Ang):
   XX=            -27.2402   YY=            -30.1395   ZZ=            -27.9510
   XY=              0.0000   XZ=             -0.0000   YZ=              0.0000

 ESP charges:
               1
     1  C    0.416446
     2  S   -0.153336
     3  F   -0.131555
     4  F   -0.131555
 Sum of ESP charges =  -0.00000

 Summary of Natural Population Analysis:

                                       Natural Population
                Natural  -----------------------------------------------
    Atom  No    Charge         Core      Valence    Rydberg      Total
 -----------------------------------------------------------------------
      C    1    0.58532      1.99944     3.28748    0.12775     5.41468
      S    2    0.01858      9.99825     5.85523    0.12794    15.98142
      F    3   -0.30195      1.99979     7.22040    0.08176     9.30195
      F    4   -0.30195      1.99979     7.22040    0.08176     9.30195
 =======================================================================
   * Total *    0.00000     15.99727    23.58352    0.41921    40.00000

 Normal termination of Gaussian 16 at Sat Sep  3 14:01:08 2022.
