 Gaussian 09, Revision B.01,
 Gaussian 09:  EM64L-G09RevB.01 12-Aug-2010

 --------------------------------------------
 #opt qcisd/aug-cc-pvtz density=current nosym
 --------------------------------------------

 -----
 cl2cs
 -----
 Symbolic Z-matrix:
 Charge =  0 Multiplicity = 1

 SCF Done:  E(RHF) =  -1354.42004909     A.U. after   13 cycles
 E2 =    -0.7232316431D+00 EUMP2 =    -0.13551432807336D+04
 SCF Done:  E(RHF) =  -1354.42589818     A.U. after   12 cycles
 E2 =    -0.7243669484D+00 EUMP2 =    -0.13551502651238D+04
 SCF Done:  E(RHF) =  -1354.42603772     A.U. after   10 cycles
 E2 =    -0.7243632267D+00 EUMP2 =    -0.13551504009483D+04
 SCF Done:  E(RHF) =  -1354.42602440     A.U. after    8 cycles
 E2 =    -0.7243740213D+00 EUMP2 =    -0.13551503984234D+04
 Optimization completed.
    -- Stationary point found.

                          Input orientation:
 ---------------------------------------------------------------------
 Center     Atomic      Atomic             Coordinates (Angstroms)
 Number     Number       Type             X           Y           Z
 ---------------------------------------------------------------------
      1          6           0        0.000000    0.000000   -0.522914
      2         17           0        0.000000   -1.430735   -1.500900
      3         17           0        0.000000    1.430735   -1.500900
      4         16           0        0.000000    0.000000    1.081815
 ---------------------------------------------------------------------

 Alpha  occ. eigenvalues -- -104.88760-104.88760 -91.97803 -11.44947 -10.61161
 Alpha  occ. eigenvalues --  -10.61160  -8.98098  -8.07837  -8.07837  -8.07627
 Alpha  occ. eigenvalues --   -8.07627  -8.07609  -8.07609  -6.66177  -6.66076
 Alpha  occ. eigenvalues --   -6.65927  -1.24302  -1.13392  -1.03990  -0.77141
 Alpha  occ. eigenvalues --   -0.64464  -0.60874  -0.58609  -0.50420  -0.49587
 Alpha  occ. eigenvalues --   -0.47765  -0.40764  -0.38099
 Alpha virt. eigenvalues --    0.01760   0.04856   0.06332   0.06897   0.10063
 Alpha virt. eigenvalues --    0.10090   0.10371   0.11213   0.11750   0.12854
 Alpha virt. eigenvalues --    0.15154   0.15353   0.16225   0.16375   0.16490

 Mulliken atomic charges:
              1
     1  C    0.005074
     2  Cl  -0.015679
     3  Cl  -0.015679
     4  S    0.026284
 Sum of Mulliken atomic charges =   0.00000

 Dipole moment (field-independent basis, Debye):
    X=              0.0000    Y=              0.0000    Z=             -0.4351  Tot=              0.4351
 Quadrupole moment (field-independent basis, Debye-Ang):
   XX=            -43.1530   YY=            -43.2924   ZZ=            -42.5374
   XY=              0.0000   XZ=              0.0000   YZ=              0.0000

 Normal termination of Gaussian 09 at Wed Nov 17 22:07:45 2021.
