 Gaussian 09, Revision B.01,
 Gaussian 09:  EM64L-G09RevB.01 12-Aug-2010

 --------------------------------------------
 #opt qcisd/aug-cc-pvtz density=current nosym
 --------------------------------------------

 ----
 f2cs
 ----
 Symbolic Z-matrix:
 Charge =  0 Multiplicity = 1

 SCF Done:  E(RHF) =  -634.336798533     A.U. after   12 cycles
 E2 =    -0.8451985188D+00 EUMP2 =    -0.63518199705172D+03
 SCF Done:  E(RHF) =  -634.355577585     A.U. after   11 cycles
 E2 =    -0.8408808109D+00 EUMP2 =    -0.63519645839556D+03
 SCF Done:  E(RHF) =  -634.356801947     A.U. after   10 cycles
 E2 =    -0.8396224218D+00 EUMP2 =    -0.63519642436864D+03
 SCF Done:  E(RHF) =  -634.356870195     A.U. after    9 cycles
 E2 =    -0.8395394438D+00 EUMP2 =    -0.63519640963860D+03
 SCF Done:  E(RHF) =  -634.356870445     A.U. after    8 cycles
 E2 =    -0.8395347488D+00 EUMP2 =    -0.63519640519340D+03
 Optimization completed.
    -- Stationary point found.

                          Input orientation:
 ---------------------------------------------------------------------
 Center     Atomic      Atomic             Coordinates (Angstroms)
 Number     Number       Type             X           Y           Z
 ---------------------------------------------------------------------
      1          6           0        0.000000    0.000000   -0.520349
      2         16           0        0.000000    0.000000    1.078525
      3          9           0        0.000000   -1.055221   -1.295538
      4          9           0        0.000000    1.055221   -1.295538
 ---------------------------------------------------------------------

 Alpha  occ. eigenvalues --  -91.97613 -26.39009 -26.39007 -11.51898  -8.97975
 Alpha  occ. eigenvalues --   -6.66098  -6.65935  -6.65814  -1.75538  -1.68122
 Alpha  occ. eigenvalues --   -1.09885  -0.92971  -0.84409  -0.80259  -0.77541
 Alpha  occ. eigenvalues --   -0.72174  -0.70145  -0.59709  -0.43113  -0.40182
 Alpha virt. eigenvalues --    0.05279   0.05518   0.06433   0.08647   0.08686
 Alpha virt. eigenvalues --    0.10318   0.10819   0.12189   0.19610   0.20459
 Alpha virt. eigenvalues --    0.20849   0.23046   0.23428   0.26352   0.27025

 Mulliken atomic charges:
              1
     1  C    0.341452
     2  S   -0.059494
     3  F   -0.140979
     4  F   -0.140979
 Sum of Mulliken atomic charges =   0.00000

 Dipole moment (field-independent basis, Debye):
    X=              0.0000    Y=              0.0000    Z=             -0.2243  Tot=              0.2243
 Quadrupole moment (field-independent basis, Debye-Ang):
   XX=            -27.2810   YY=            -30.1543   ZZ=            -27.9399
   XY=              0.0000   XZ=              0.0000   YZ=              0.0000

 Normal termination of Gaussian 09 at Wed Nov 17 04:59:20 2021.
