 Gaussian 09, Revision B.01,
 Gaussian 09:  EM64L-G09RevB.01 12-Aug-2010

 ----------------------------------------------------------------------
 #freq=noraman qcisd/aug-cc-pvtz density=current iop(7/33=1) nosym form
 check=forcecart
 ----------------------------------------------------------------------

 ----------------
 f2cs-frequencies
 ----------------
 Symbolic Z-matrix:
 Charge =  0 Multiplicity = 1

                          Input orientation:
 ---------------------------------------------------------------------
 Center     Atomic      Atomic             Coordinates (Angstroms)
 Number     Number       Type             X           Y           Z
 ---------------------------------------------------------------------
      1          6           0        0.000000    0.000000   -0.520349
      2         16           0        0.000000    0.000000    1.078525
      3          9           0        0.000000   -1.055221   -1.295538
      4          9           0        0.000000    1.055221   -1.295538
 ---------------------------------------------------------------------

 SCF Done:  E(RHF) =  -634.356870457     A.U. after   12 cycles
 E2 =    -0.8395347396D+00 EUMP2 =    -0.63519640519629D+03
 SCF Done:  E(RHF) =  -634.356870084     A.U. after    6 cycles
 E2 =    -0.8395348288D+00 EUMP2 =    -0.63519640491284D+03
 SCF Done:  E(RHF) =  -634.356870084     A.U. after    7 cycles
 E2 =    -0.8395348535D+00 EUMP2 =    -0.63519640493745D+03
 SCF Done:  E(RHF) =  -634.356869521     A.U. after    7 cycles
 E2 =    -0.8395347924D+00 EUMP2 =    -0.63519640431339D+03
 SCF Done:  E(RHF) =  -634.356869521     A.U. after    8 cycles
 E2 =    -0.8395347868D+00 EUMP2 =    -0.63519640430773D+03
 SCF Done:  E(RHF) =  -634.356825956     A.U. after    8 cycles
 E2 =    -0.8395937515D+00 EUMP2 =    -0.63519641970783D+03
 SCF Done:  E(RHF) =  -634.356912325     A.U. after    9 cycles
 E2 =    -0.8394757494D+00 EUMP2 =    -0.63519638807437D+03
 SCF Done:  E(RHF) =  -634.356870414     A.U. after    6 cycles
 E2 =    -0.8395347612D+00 EUMP2 =    -0.63519640517537D+03
 SCF Done:  E(RHF) =  -634.356870414     A.U. after    7 cycles
 E2 =    -0.8395347660D+00 EUMP2 =    -0.63519640518016D+03
 SCF Done:  E(RHF) =  -634.356870361     A.U. after    6 cycles
 E2 =    -0.8395347610D+00 EUMP2 =    -0.63519640512176D+03
 E2 =    -0.8395347615D+00 EUMP2 =    -0.63519640512222D+03
 E2 =    -0.8395594354D+00 EUMP2 =    -0.63519640166806D+03
 E2 =    -0.8395099993D+00 EUMP2 =    -0.63519640704605D+03
 E2 =    -0.8395347863D+00 EUMP2 =    -0.63519640518360D+03
 E2 =    -0.8395347763D+00 EUMP2 =    -0.63519640517367D+03
 SCF Done:  E(RHF) =  -634.356920074     A.U. after    8 cycles
 E2 =    -0.8394760990D+00 EUMP2 =    -0.63519639617255D+03
 SCF Done:  E(RHF) =  -634.356819632     A.U. after    9 cycles
 E2 =    -0.8395934138D+00 EUMP2 =    -0.63519641304594D+03
 SCF Done:  E(RHF) =  -634.356905360     A.U. after    7 cycles
 E2 =    -0.8394929220D+00 EUMP2 =    -0.63519639828196D+03
 SCF Done:  E(RHF) =  -634.356834768     A.U. after    7 cycles
 E2 =    -0.8395766159D+00 EUMP2 =    -0.63519641138429D+03
 SCF Done:  E(RHF) =  -634.356870397     A.U. after    7 cycles
 E2 =    -0.8395347863D+00 EUMP2 =    -0.63519640518359D+03
 SCF Done:  E(RHF) =  -634.356870397     A.U. after    8 cycles
 E2 =    -0.8395347763D+00 EUMP2 =    -0.63519640517366D+03
 SCF Done:  E(RHF) =  -634.356819632     A.U. after    8 cycles
 E2 =    -0.8395934146D+00 EUMP2 =    -0.63519641304672D+03
 SCF Done:  E(RHF) =  -634.356920074     A.U. after    9 cycles
 E2 =    -0.8394760997D+00 EUMP2 =    -0.63519639617323D+03
 SCF Done:  E(RHF) =  -634.356905360     A.U. after    7 cycles
 E2 =    -0.8394929220D+00 EUMP2 =    -0.63519639828196D+03
 SCF Done:  E(RHF) =  -634.356834768     A.U. after    7 cycles
 E2 =    -0.8395766159D+00 EUMP2 =    -0.63519641138429D+03

 Alpha  occ. eigenvalues --  -91.97623 -26.39007 -26.38993 -11.51903  -8.97985
 Alpha  occ. eigenvalues --   -6.66107  -6.65945  -6.65824  -1.75517  -1.68102
 Alpha  occ. eigenvalues --   -1.09888  -0.92959  -0.84389  -0.80244  -0.77533
 Alpha  occ. eigenvalues --   -0.72163  -0.70131  -0.59717  -0.43121  -0.40189
 Alpha virt. eigenvalues --    0.05272   0.05516   0.06435   0.08648   0.08686
 Alpha virt. eigenvalues --    0.10318   0.10817   0.12187   0.19614   0.20461
 Alpha virt. eigenvalues --    0.20845   0.23041   0.23428   0.26352   0.27015

 Mulliken atomic charges:
              1
     1  C    0.341679
     2  S   -0.059238
     3  F   -0.140946
     4  F   -0.141495
 Sum of Mulliken atomic charges =   0.00000

 Dipole moment (field-independent basis, Debye):
    X=              0.0000    Y=             -0.0021    Z=             -0.2199  Tot=              0.2199
 Quadrupole moment (field-independent basis, Debye-Ang):
   XX=            -27.2809   YY=            -30.1558   ZZ=            -27.9410
   XY=              0.0000   XZ=              0.0000   YZ=              0.0022

                     1                      2                      3
                     A                      A                      A
 Frequencies --   424.5917               533.7680               637.2104
 Red. masses --    18.9320                21.3521                12.8441
 Frc consts  --     2.0109                 3.5842                 3.0727
 IR Inten    --     0.3400                 7.0902                 1.9516

                     4                      5                      6
                     A                      A                      A
 Frequencies --   808.5680              1257.0990              1398.8243
 Red. masses --    20.7007                13.5023                13.1679
 Frc consts  --     7.9738                12.5718                15.1807
 IR Inten    --     7.2405               240.4001               660.0949

 - Thermochemistry -
 -------------------
 Temperature   298.150 Kelvin.  Pressure   1.00000 Atm.
 Atom     1 has atomic number  6 and mass  12.00000

 Molecular mass:    81.96888 amu.
 Principal axes and moments of inertia in atomic units:
                           1         2         3
     Eigenvalues --   151.08860 352.96508 504.05368
           X            0.00000   0.00000   1.00000
           Y            0.00000   1.00000   0.00000
           Z            1.00000   0.00000   0.00000
 This molecule is an asymmetric top.
 Rotational symmetry number  2.
 Rotational temperatures (Kelvin)      0.57327     0.24539     0.17183
 Rotational constants (GHZ):          11.94492     5.11309     3.58045
 Zero-point vibrational energy      30265.9 (Joules/Mol)
                                    7.23372 (Kcal/Mol)
 Warning -- explicit consideration of   2 degrees of freedom as
           vibrations may cause significant error
 Vibrational temperatures:    610.89   767.97   916.80  1163.35  1808.68
          (Kelvin)           2012.59

 Zero-point correction=                           0.011528 (Hartree/Particle)
 Thermal correction to Energy=                    0.015084
 Thermal correction to Enthalpy=                  0.016028
 Thermal correction to Gibbs Free Energy=        -0.014687
 Sum of electronic and zero-point Energies=           -635.195796
 Sum of electronic and thermal Energies=              -635.192240
 Sum of electronic and thermal Enthalpies=            -635.191296
 Sum of electronic and thermal Free Energies=         -635.222010

                     E (Thermal)             CV                S
                      KCal/Mol        Cal/Mol-Kelvin    Cal/Mol-Kelvin
 Total                    9.465             10.421             64.645
 Electronic               0.000              0.000              0.000
 Translational            0.889              2.981             39.125
 Rotational               0.889              2.981             23.423
 Vibrational              7.688              4.459              2.096
 Vibration     1          0.787              1.417              0.877
 Vibration     2          0.889              1.175              0.579

 Optimization completed.
    -- Stationary point found.
 Normal termination of Gaussian 09 at Wed Nov 17 12:17:20 2021.
