 Gaussian 09, Revision B.01,
 Gaussian 09:  EM64L-G09RevB.01 12-Aug-2010

 -----------------------------------------------------
 # qcisd/aug-cc-pvtz nosymm density=current output=wfn
 -----------------------------------------------------

 -----------------
 f2cs-wavefunction
 -----------------
 Symbolic Z-matrix:
 Charge =  0 Multiplicity = 1

                          Input orientation:
 ---------------------------------------------------------------------
 Center     Atomic      Atomic             Coordinates (Angstroms)
 Number     Number       Type             X           Y           Z
 ---------------------------------------------------------------------
      1          6           0        0.000000    0.000000   -0.520349
      2         16           0        0.000000    0.000000    1.068525
      3          9           0        0.000000   -1.055221   -1.295538
      4          9           0        0.000000    1.055221   -1.295538
 ---------------------------------------------------------------------

 SCF Done:  E(RHF) =  -634.357061246     A.U. after   12 cycles
 E2 =    -0.8392853593D+00 EUMP2 =    -0.63519634660582D+03

 Mulliken atomic charges:
              1
     1  C    0.340044
     2  S   -0.057726
     3  F   -0.141159
     4  F   -0.141159
 Sum of Mulliken atomic charges =   0.00000

 Dipole moment (field-independent basis, Debye):
    X=              0.0000    Y=              0.0000    Z=             -0.1906  Tot=              0.1906
 Quadrupole moment (field-independent basis, Debye-Ang):
   XX=            -27.2402   YY=            -30.1395   ZZ=            -27.9510
   XY=              0.0000   XZ=              0.0000   YZ=              0.0000

 Normal termination of Gaussian 09 at Sat Nov 27 06:00:10 2021.
