 Gaussian 09, Revision B.01,
 Gaussian 09:  EM64L-G09RevB.01 12-Aug-2010

 -----------------------------------------------------
 # qcisd/aug-cc-pvtz nosymm density=current output=wfn
 -----------------------------------------------------

 -----------------
 f2cs-wavefunction
 -----------------
 Symbolic Z-matrix:
 Charge =  0 Multiplicity = 1

                          Input orientation:
 ---------------------------------------------------------------------
 Center     Atomic      Atomic             Coordinates (Angstroms)
 Number     Number       Type             X           Y           Z
 ---------------------------------------------------------------------
      1          6           0        0.000000    0.000000   -0.520349
      2         16           0        0.000000    0.000000    1.078525
      3          9           0        0.000000   -1.055221   -1.295538
      4          9           0        0.000000    1.055221   -1.305538
 ---------------------------------------------------------------------

 SCF Done:  E(RHF) =  -634.356478560     A.U. after   12 cycles
 E2 =    -0.8399559973D+00 EUMP2 =    -0.63519643455682D+03

 Mulliken atomic charges:
              1
     1  C    0.343688
     2  S   -0.056942
     3  F   -0.140642
     4  F   -0.146105
 Sum of Mulliken atomic charges =   0.00000

 Dipole moment (field-independent basis, Debye):
    X=              0.0000    Y=             -0.0209    Z=             -0.1799  Tot=              0.1811
 Quadrupole moment (field-independent basis, Debye-Ang):
   XX=            -27.2807   YY=            -30.1689   ZZ=            -27.9520
   XY=              0.0000   XZ=              0.0000   YZ=              0.0224

 Normal termination of Gaussian 09 at Sat Nov 27 09:59:53 2021.
