 Gaussian 09, Revision B.01,
 Gaussian 09:  EM64L-G09RevB.01 12-Aug-2010

 -----------------------------------------------------
 # qcisd/aug-cc-pvtz nosymm density=current output=wfn
 -----------------------------------------------------

 -----------------
 f2cs-wavefunction
 -----------------
 Symbolic Z-matrix:
 Charge =  0 Multiplicity = 1

                          Input orientation:
 ---------------------------------------------------------------------
 Center     Atomic      Atomic             Coordinates (Angstroms)
 Number     Number       Type             X           Y           Z
 ---------------------------------------------------------------------
      1          6           0        0.000000    0.000000   -0.520349
      2         16           0        0.000000    0.000000    1.078525
      3          9           0       -0.010000   -1.055221   -1.295538
      4          9           0        0.000000    1.055221   -1.295538
 ---------------------------------------------------------------------

 SCF Done:  E(RHF) =  -634.356864515     A.U. after   12 cycles
 E2 =    -0.8395378966D+00 EUMP2 =    -0.63519640241145D+03

 Mulliken atomic charges:
              1
     1  C    0.341467
     2  S   -0.059472
     3  F   -0.141017
     4  F   -0.140979
 Sum of Mulliken atomic charges =   0.00000

 Dipole moment (field-independent basis, Debye):
    X=              0.0019    Y=              0.0001    Z=             -0.2241  Tot=              0.2241
 Quadrupole moment (field-independent basis, Debye-Ang):
   XX=            -27.2810   YY=            -30.1544   ZZ=            -27.9399
   XY=             -0.0136   XZ=             -0.0148   YZ=             -0.0002

 Normal termination of Gaussian 09 at Sat Nov 27 06:39:15 2021.
