 Gaussian 09, Revision B.01,
 Gaussian 09:  EM64L-G09RevB.01 12-Aug-2010

 -----------------------------------------------------
 # qcisd/aug-cc-pvtz nosymm density=current output=wfn
 -----------------------------------------------------

 -----------------
 f2cs-wavefunction
 -----------------
 Symbolic Z-matrix:
 Charge =  0 Multiplicity = 1

                          Input orientation:
 ---------------------------------------------------------------------
 Center     Atomic      Atomic             Coordinates (Angstroms)
 Number     Number       Type             X           Y           Z
 ---------------------------------------------------------------------
      1          6           0        0.000000    0.000000   -0.520349
      2         16           0        0.000000   -0.010000    1.078525
      3          9           0        0.000000   -1.055221   -1.295538
      4          9           0        0.000000    1.055221   -1.295538
 ---------------------------------------------------------------------

 SCF Done:  E(RHF) =  -634.356860859     A.U. after   12 cycles
 E2 =    -0.8395360858D+00 EUMP2 =    -0.63519639694444D+03

 Mulliken atomic charges:
              1
     1  C    0.341445
     2  S   -0.059485
     3  F   -0.141250
     4  F   -0.140710
 Sum of Mulliken atomic charges =   0.00000

 Dipole moment (field-independent basis, Debye):
    X=              0.0000    Y=              0.0053    Z=             -0.2245  Tot=              0.2245
 Quadrupole moment (field-independent basis, Debye-Ang):
   XX=            -27.2811   YY=            -30.1542   ZZ=            -27.9401
   XY=              0.0000   XZ=              0.0000   YZ=             -0.0297

 Normal termination of Gaussian 09 at Sat Nov 27 05:20:40 2021.
