 Gaussian 09, Revision B.01,
 Gaussian 09:  EM64L-G09RevB.01 12-Aug-2010

 -----------------------------------------------------
 # qcisd/aug-cc-pvtz nosymm density=current output=wfn
 -----------------------------------------------------

 -----------------
 f2co-wavefunction
 -----------------
 Symbolic Z-matrix:
 Charge =  0 Multiplicity = 1

                          Input orientation:
 ---------------------------------------------------------------------
 Center     Atomic      Atomic             Coordinates (Angstroms)
 Number     Number       Type             X           Y           Z
 ---------------------------------------------------------------------
      1          8           0        0.000000    0.000000    0.679927
      2          6           0        0.000000   -0.010000   -0.492216
      3          9           0        0.000000   -1.058878   -1.264305
      4          9           0        0.000000    1.058878   -1.264305
 ---------------------------------------------------------------------

 SCF Done:  E(RHF) =  -311.741129010     A.U. after   12 cycles
 E2 =    -0.8959149015D+00 EUMP2 =    -0.31263704391129D+03

 Mulliken atomic charges:
              1
     1  O   -0.287614
     2  C    0.610096
     3  F   -0.152565
     4  F   -0.169917
 Sum of Mulliken atomic charges =   0.00000

 Dipole moment (field-independent basis, Debye):
    X=              0.0000    Y=             -0.0971    Z=             -1.0333  Tot=              1.0378
 Quadrupole moment (field-independent basis, Debye-Ang):
   XX=            -18.9051   YY=            -21.3164   ZZ=            -21.9186
   XY=              0.0000   XZ=              0.0000   YZ=              0.1114

 Normal termination of Gaussian 09 at Fri Nov 26 20:45:23 2021.
