 Gaussian 09, Revision B.01,
 Gaussian 09:  EM64L-G09RevB.01 12-Aug-2010

 -----------------------------------------------------
 # qcisd/aug-cc-pvtz nosymm density=current output=wfn
 -----------------------------------------------------

 -----------------
 f2co-wavefunction
 -----------------
 Symbolic Z-matrix:
 Charge =  0 Multiplicity = 1

                          Input orientation:
 ---------------------------------------------------------------------
 Center     Atomic      Atomic             Coordinates (Angstroms)
 Number     Number       Type             X           Y           Z
 ---------------------------------------------------------------------
      1          8           0        0.000000    0.000000    0.679927
      2          6           0        0.000000    0.000000   -0.492216
      3          9           0        0.000000   -1.058878   -1.274305
      4          9           0        0.000000    1.058878   -1.264305
 ---------------------------------------------------------------------

 SCF Done:  E(RHF) =  -311.740823218     A.U. after   12 cycles
 E2 =    -0.8963624778D+00 EUMP2 =    -0.31263718569547D+03

 Mulliken atomic charges:
              1
     1  O   -0.285171
     2  C    0.611819
     3  F   -0.165836
     4  F   -0.160812
 Sum of Mulliken atomic charges =   0.00000

 Dipole moment (field-independent basis, Debye):
    X=              0.0000    Y=              0.0172    Z=             -1.0027  Tot=              1.0029
 Quadrupole moment (field-independent basis, Debye-Ang):
   XX=            -18.9116   YY=            -21.3350   ZZ=            -21.9452
   XY=              0.0000   XZ=              0.0000   YZ=             -0.0217

 Normal termination of Gaussian 09 at Fri Nov 26 23:25:31 2021.
