 Gaussian 09, Revision B.01,
 Gaussian 09:  EM64L-G09RevB.01 12-Aug-2010

 -----------------------------------------------------
 # qcisd/aug-cc-pvtz nosymm density=current output=wfn
 -----------------------------------------------------

 -----------------
 f2co-wavefunction
 -----------------
 Symbolic Z-matrix:
 Charge =  0 Multiplicity = 1

                          Input orientation:
 ---------------------------------------------------------------------
 Center     Atomic      Atomic             Coordinates (Angstroms)
 Number     Number       Type             X           Y           Z
 ---------------------------------------------------------------------
      1          8           0        0.000000    0.000000    0.679927
      2          6           0        0.000000    0.000000   -0.492216
      3          9           0        0.000000   -1.058878   -1.264305
      4          9           0        0.010000    1.058878   -1.264305
 ---------------------------------------------------------------------

 SCF Done:  E(RHF) =  -311.741233149     A.U. after   11 cycles
 E2 =    -0.8959071724D+00 EUMP2 =    -0.31263714032125D+03

 Mulliken atomic charges:
              1
     1  O   -0.287512
     2  C    0.610182
     3  F   -0.161316
     4  F   -0.161354
 Sum of Mulliken atomic charges =   0.00000

 Dipole moment (field-independent basis, Debye):
    X=             -0.0061    Y=             -0.0001    Z=             -1.0332  Tot=              1.0332
 Quadrupole moment (field-independent basis, Debye-Ang):
   XX=            -18.9050   YY=            -21.3171   ZZ=            -21.9185
   XY=             -0.0114   XZ=              0.0126   YZ=              0.0002

 Normal termination of Gaussian 09 at Fri Nov 26 23:46:40 2021.
