 Gaussian 09, Revision B.01,
 Gaussian 09:  EM64L-G09RevB.01 12-Aug-2010

 -----------------------------------------------------
 # qcisd/aug-cc-pvtz nosymm density=current output=wfn
 -----------------------------------------------------

 -----------------
 f2co-wavefunction
 -----------------
 Symbolic Z-matrix:
 Charge =  0 Multiplicity = 1

                          Input orientation:
 ---------------------------------------------------------------------
 Center     Atomic      Atomic             Coordinates (Angstroms)
 Number     Number       Type             X           Y           Z
 ---------------------------------------------------------------------
      1          8           0        0.000000   -0.010000    0.679927
      2          6           0        0.000000    0.000000   -0.492216
      3          9           0        0.000000   -1.058878   -1.264305
      4          9           0        0.000000    1.058878   -1.264305
 ---------------------------------------------------------------------

 SCF Done:  E(RHF) =  -311.741214760     A.U. after   11 cycles
 E2 =    -0.8959107257D+00 EUMP2 =    -0.31263712548559D+03

 Mulliken atomic charges:
              1
     1  O   -0.287558
     2  C    0.610172
     3  F   -0.162010
     4  F   -0.160605
 Sum of Mulliken atomic charges =   0.00000

 Dipole moment (field-independent basis, Debye):
    X=              0.0000    Y=              0.0251    Z=             -1.0335  Tot=              1.0338
 Quadrupole moment (field-independent basis, Debye-Ang):
   XX=            -18.9051   YY=            -21.3170   ZZ=            -21.9185
   XY=              0.0000   XZ=              0.0000   YZ=             -0.0111

 Normal termination of Gaussian 09 at Fri Nov 26 18:37:53 2021.
