 Gaussian 09, Revision B.01,
 Gaussian 09:  EM64L-G09RevB.01 12-Aug-2010

 -----------------------------------------------------
 # qcisd/aug-cc-pvtz nosymm density=current output=wfn
 -----------------------------------------------------

 -----------------
 f2co-wavefunction
 -----------------
 Symbolic Z-matrix:
 Charge =  0 Multiplicity = 1

                          Input orientation:
 ---------------------------------------------------------------------
 Center     Atomic      Atomic             Coordinates (Angstroms)
 Number     Number       Type             X           Y           Z
 ---------------------------------------------------------------------
      1          8           0        0.000000    0.000000    0.679927
      2          6           0        0.000000    0.000000   -0.492216
      3          9           0        0.000000   -1.058878   -1.264305
      4          9           0        0.000000    1.068878   -1.264305
 ---------------------------------------------------------------------

 SCF Done:  E(RHF) =  -311.740691318     A.U. after   12 cycles
 E2 =    -0.8964779938D+00 EUMP2 =    -0.31263716931210D+03

 Mulliken atomic charges:
              1
     1  O   -0.285711
     2  C    0.612494
     3  F   -0.159454
     4  F   -0.167330
 Sum of Mulliken atomic charges =   0.00000

 Dipole moment (field-independent basis, Debye):
    X=              0.0000    Y=             -0.0360    Z=             -1.0136  Tot=              1.0143
 Quadrupole moment (field-independent basis, Debye-Ang):
   XX=            -18.9142   YY=            -21.3396   ZZ=            -21.9347
   XY=              0.0000   XZ=              0.0000   YZ=              0.0450

 Normal termination of Gaussian 09 at Sat Nov 27 00:28:39 2021.
