 Gaussian 09, Revision B.01,
 Gaussian 09:  EM64L-G09RevB.01 12-Aug-2010

 -----------------------------------------------------
 # qcisd/aug-cc-pvtz nosymm density=current output=wfn
 -----------------------------------------------------

 -----------------
 f2co-wavefunction
 -----------------
 Symbolic Z-matrix:
 Charge =  0 Multiplicity = 1

                          Input orientation:
 ---------------------------------------------------------------------
 Center     Atomic      Atomic             Coordinates (Angstroms)
 Number     Number       Type             X           Y           Z
 ---------------------------------------------------------------------
      1          8           0        0.000000    0.000000    0.679927
      2          6           0        0.000000    0.000000   -0.502216
      3          9           0        0.000000   -1.058878   -1.264305
      4          9           0        0.000000    1.058878   -1.264305
 ---------------------------------------------------------------------

 SCF Done:  E(RHF) =  -311.740780826     A.U. after   11 cycles
 E2 =    -0.8962245233D+00 EUMP2 =    -0.31263700534952D+03

 Mulliken atomic charges:
              1
     1  O   -0.296247
     2  C    0.606740
     3  F   -0.155247
     4  F   -0.155247
 Sum of Mulliken atomic charges =   0.00000

 Dipole moment (field-independent basis, Debye):
    X=              0.0000    Y=              0.0000    Z=             -1.1414  Tot=              1.1414
 Quadrupole moment (field-independent basis, Debye-Ang):
   XX=            -18.9213   YY=            -21.2802   ZZ=            -21.8406
   XY=              0.0000   XZ=              0.0000   YZ=              0.0000

 Normal termination of Gaussian 09 at Fri Nov 26 21:23:58 2021.
