 Gaussian 09, Revision B.01,
 Gaussian 09:  EM64L-G09RevB.01 12-Aug-2010

 -----------------------------------------------------
 # qcisd/aug-cc-pvtz nosymm density=current output=wfn
 -----------------------------------------------------

 -----------------
 f2co-wavefunction
 -----------------
 Symbolic Z-matrix:
 Charge =  0 Multiplicity = 1

                          Input orientation:
 ---------------------------------------------------------------------
 Center     Atomic      Atomic             Coordinates (Angstroms)
 Number     Number       Type             X           Y           Z
 ---------------------------------------------------------------------
      1          8           0        0.000000    0.000000    0.679927
      2          6           0        0.000000    0.000000   -0.492216
      3          9           0        0.000000   -1.058878   -1.264305
      4          9           0        0.000000    1.058878   -1.254305
 ---------------------------------------------------------------------

 SCF Done:  E(RHF) =  -311.741573725     A.U. after   12 cycles
 E2 =    -0.8954510983D+00 EUMP2 =    -0.31263702482353D+03

 Mulliken atomic charges:
              1
     1  O   -0.289938
     2  C    0.608460
     3  F   -0.161784
     4  F   -0.156738
 Sum of Mulliken atomic charges =   0.00000

 Dipole moment (field-independent basis, Debye):
    X=              0.0000    Y=              0.0172    Z=             -1.0639  Tot=              1.0640
 Quadrupole moment (field-independent basis, Debye-Ang):
   XX=            -18.8983   YY=            -21.2989   ZZ=            -21.8923
   XY=              0.0000   XZ=              0.0000   YZ=             -0.0212

 Normal termination of Gaussian 09 at Sat Nov 27 01:07:32 2021.
