 Gaussian 09, Revision B.01,
 Gaussian 09:  EM64L-G09RevB.01 12-Aug-2010

 ----------------------------------------------------------------------
 #freq=noraman qcisd/aug-cc-pvtz density=current iop(7/33=1) nosym form
 check=forcecart
 ----------------------------------------------------------------------

 -----------------
 cl2cs-frequencies
 -----------------
 Symbolic Z-matrix:
 Charge =  0 Multiplicity = 1

                          Input orientation:
 ---------------------------------------------------------------------
 Center     Atomic      Atomic             Coordinates (Angstroms)
 Number     Number       Type             X           Y           Z
 ---------------------------------------------------------------------
      1          6           0        0.000000    0.000000   -0.522914
      2         17           0        0.000000   -1.430735   -1.500900
      3         17           0        0.000000    1.430735   -1.500900
      4         16           0        0.000000    0.000000    1.081815
 ---------------------------------------------------------------------

 SCF Done:  E(RHF) =  -1354.42602442     A.U. after   12 cycles
 E2 =    -0.7243740118D+00 EUMP2 =    -0.13551503984330D+04
 SCF Done:  E(RHF) =  -1354.42602421     A.U. after    7 cycles
 E2 =    -0.7243740530D+00 EUMP2 =    -0.13551503982611D+04
 SCF Done:  E(RHF) =  -1354.42602421     A.U. after    8 cycles
 E2 =    -0.7243740653D+00 EUMP2 =    -0.13551503982733D+04
 SCF Done:  E(RHF) =  -1354.42602388     A.U. after    7 cycles
 E2 =    -0.7243741246D+00 EUMP2 =    -0.13551503980003D+04
 SCF Done:  E(RHF) =  -1354.42602388     A.U. after    8 cycles
 E2 =    -0.7243741059D+00 EUMP2 =    -0.13551503979816D+04
 SCF Done:  E(RHF) =  -1354.42603756     A.U. after    9 cycles
 E2 =    -0.7243561974D+00 EUMP2 =    -0.13551503937532D+04
 SCF Done:  E(RHF) =  -1354.42600940     A.U. after    9 cycles
 E2 =    -0.7243919229D+00 EUMP2 =    -0.13551504013205D+04
 SCF Done:  E(RHF) =  -1354.42602440     A.U. after    8 cycles
 E2 =    -0.7243740303D+00 EUMP2 =    -0.13551503984286D+04
 SCF Done:  E(RHF) =  -1354.42602440     A.U. after    8 cycles
 E2 =    -0.7243740188D+00 EUMP2 =    -0.13551503984171D+04
 SCF Done:  E(RHF) =  -1354.42603504     A.U. after    7 cycles
 E2 =    -0.7243662743D+00 EUMP2 =    -0.13551504013105D+04
 E2 =    -0.7243818259D+00 EUMP2 =    -0.13551503949737D+04
 E2 =    -0.7243650250D+00 EUMP2 =    -0.13551503987972D+04
 E2 =    -0.7243830463D+00 EUMP2 =    -0.13551503977278D+04
 E2 =    -0.7243740303D+00 EUMP2 =    -0.13551503984286D+04
 E2 =    -0.7243740188D+00 EUMP2 =    -0.13551503984171D+04
 SCF Done:  E(RHF) =  -1354.42601315     A.U. after    7 cycles
 E2 =    -0.7243818295D+00 EUMP2 =    -0.13551503949772D+04
 SCF Done:  E(RHF) =  -1354.42603504     A.U. after    8 cycles
 E2 =    -0.7243662779D+00 EUMP2 =    -0.13551504013141D+04
 SCF Done:  E(RHF) =  -1354.42603377     A.U. after    7 cycles
 E2 =    -0.7243650250D+00 EUMP2 =    -0.13551503987972D+04
 SCF Done:  E(RHF) =  -1354.42601468     A.U. after    8 cycles
 E2 =    -0.7243830463D+00 EUMP2 =    -0.13551503977278D+04
 SCF Done:  E(RHF) =  -1354.42602438     A.U. after    7 cycles
 E2 =    -0.7243740241D+00 EUMP2 =    -0.13551503984074D+04
 SCF Done:  E(RHF) =  -1354.42602438     A.U. after    7 cycles
 E2 =    -0.7243740507D+00 EUMP2 =    -0.13551503984340D+04
 SCF Done:  E(RHF) =  -1354.42602432     A.U. after    6 cycles
 E2 =    -0.7243740418D+00 EUMP2 =    -0.13551503983641D+04
 SCF Done:  E(RHF) =  -1354.42602432     A.U. after    7 cycles
 E2 =    -0.7243740419D+00 EUMP2 =    -0.13551503983641D+04
 SCF Done:  E(RHF) =  -1354.42599046     A.U. after    9 cycles
 E2 =    -0.7244098880D+00 EUMP2 =    -0.13551504003466D+04
 SCF Done:  E(RHF) =  -1354.42605680     A.U. after    9 cycles
 E2 =    -0.7243381659D+00 EUMP2 =    -0.13551503949636D+04

 Alpha  occ. eigenvalues -- -104.88752-104.88752 -91.97799 -11.44930 -10.61153
 Alpha  occ. eigenvalues --  -10.61151  -8.98099  -8.07829  -8.07829  -8.07619
 Alpha  occ. eigenvalues --   -8.07619  -8.07601  -8.07601  -6.66178  -6.66077
 Alpha  occ. eigenvalues --   -6.65927  -1.24304  -1.13387  -1.04020  -0.77131
 Alpha  occ. eigenvalues --   -0.64466  -0.60877  -0.58612  -0.50421  -0.49582
 Alpha  occ. eigenvalues --   -0.47759  -0.40778  -0.38101
 Alpha virt. eigenvalues --    0.01770   0.04856   0.06332   0.06899   0.10066
 Alpha virt. eigenvalues --    0.10087   0.10372   0.11215   0.11749   0.12855
 Alpha virt. eigenvalues --    0.15155   0.15354   0.16231   0.16375   0.16491

 Mulliken atomic charges:
              1
     1  C    0.005005
     2  Cl  -0.015829
     3  Cl  -0.015829
     4  S    0.026653
 Sum of Mulliken atomic charges =   0.00000

 Dipole moment (field-independent basis, Debye):
    X=              0.0000    Y=              0.0000    Z=             -0.4309  Tot=              0.4309
 Quadrupole moment (field-independent basis, Debye-Ang):
   XX=            -43.1497   YY=            -43.2941   ZZ=            -42.5403
   XY=              0.0000   XZ=              0.0000   YZ=              0.0000

                     1                      2                      3
                     A                      A                      A
 Frequencies --   297.2129               305.8448               479.0594
 Red. masses --    31.0121                30.8829                12.8874
 Frc consts  --     1.6140                 1.7020                 1.7426
 IR Inten    --     0.0538                 0.0000                 1.1170

                     4                      5                      6
                     A                      A                      A
 Frequencies --   512.0477               840.4460              1172.2667
 Red. masses --    31.9231                13.3779                13.6765
 Frc consts  --     4.9315                 5.5675                11.0733
 IR Inten    --    15.8416               196.5667               284.2091

 - Thermochemistry -
 -------------------
 Temperature   298.150 Kelvin.  Pressure   1.00000 Atm.
 Atom     1 has atomic number  6 and mass  12.00000

 Molecular mass:   113.90978 amu.
 Principal axes and moments of inertia in atomic units:
                           1         2         3
     Eigenvalues --   511.24317 523.735661034.97883
           X            0.00000   0.00000   1.00000
           Y            0.00000   1.00000   0.00000
           Z            1.00000   0.00000   0.00000
 This molecule is an asymmetric top.
 Rotational symmetry number  2.
 Warning -- assumption of classical behavior for rotation
           may cause significant error
 Rotational temperatures (Kelvin)      0.16942     0.16538     0.08369
 Rotational constants (GHZ):           3.53010     3.44590     1.74375
 Zero-point vibrational energy      21573.9 (Joules/Mol)
                                    5.15629 (Kcal/Mol)
 Warning -- explicit consideration of   4 degrees of freedom as
           vibrations may cause significant error
 Vibrational temperatures:    427.62   440.04   689.26   736.72  1209.21
          (Kelvin)           1686.63

 Zero-point correction=                           0.008217 (Hartree/Particle)
 Thermal correction to Energy=                    0.012428
 Thermal correction to Enthalpy=                  0.013372
 Thermal correction to Gibbs Free Energy=        -0.019996
 Sum of electronic and zero-point Energies=          -1355.176012
 Sum of electronic and thermal Energies=             -1355.171802
 Sum of electronic and thermal Enthalpies=           -1355.170857
 Sum of electronic and thermal Free Energies=        -1355.204226

                     E (Thermal)             CV                S
                      KCal/Mol        Cal/Mol-Kelvin    Cal/Mol-Kelvin
 Total                    7.799             12.633             70.229
 Electronic               0.000              0.000              0.000
 Translational            0.889              2.981             40.106
 Rotational               0.889              2.981             25.741
 Vibrational              6.021              6.671              4.382
 Vibration     1          0.691              1.679              1.433
 Vibration     2          0.696              1.663              1.385
 Vibration     3          0.835              1.297              0.713
 Vibration     4          0.867              1.223              0.629

 Optimization completed.
    -- Stationary point found.
 Normal termination of Gaussian 09 at Thu Nov 18 05:57:22 2021.
