 Gaussian 16, Revision C.01,
 Gaussian 16:  EM64L-G16RevC.01  3-Jul-2019

 ----------------------------------------------------------------------
 # qcisd/aug-cc-pvtz nosymm density=current pop=(chelpg,hirshfeld,npa,d
 ipole)
 ----------------------------------------------------------------------

 -----------------
 h2cs-wavefunction
 -----------------
 Symbolic Z-matrix:
 Charge =  0 Multiplicity = 1

                          Input orientation:
 ---------------------------------------------------------------------
 Center     Atomic      Atomic             Coordinates (Angstroms)
 Number     Number       Type             X           Y           Z
 ---------------------------------------------------------------------
      1          6           0        0.000000    0.000000   -0.555291
      2         16           0        0.000000    0.000000    1.050374
      3          1           0        0.000000   -0.922280   -1.128992
      4          1           0        0.000000    0.922280   -1.128992
 ---------------------------------------------------------------------

 SCF Done:  E(RHF) =  -436.557887650     A.U. after   11 cycles
 E2 =    -0.3405111153D+00 EUMP2 =    -0.43689839876477D+03

 Alpha  occ. eigenvalues --  -91.95558 -11.31921  -8.95809  -6.63876  -6.63843
 Alpha  occ. eigenvalues --   -6.63645  -1.06730  -0.81352  -0.64507  -0.54229
 Alpha  occ. eigenvalues --   -0.41982  -0.35215
 Alpha virt. eigenvalues --    0.02853   0.03629   0.04273   0.06129   0.09211
 Alpha virt. eigenvalues --    0.10414   0.11631   0.13157   0.13527   0.14773
 Alpha virt. eigenvalues --    0.19867   0.21687   0.23067   0.24399   0.27187

 Mulliken charges:
               1
     1  C   -0.826791
     2  S   -0.065719
     3  H    0.446255
     4  H    0.446255
 Sum of Mulliken charges =  -0.00000

 Dipole moment (field-independent basis, Debye):
    X=             -0.0000    Y=              0.0000    Z=             -1.7353  Tot=              1.7353
 Quadrupole moment (field-independent basis, Debye-Ang):
   XX=            -19.9438   YY=            -20.5580   ZZ=            -18.9815
   XY=             -0.0000   XZ=              0.0000   YZ=              0.0000

 ESP charges:
               1
     1  C   -0.015630
     2  S   -0.161658
     3  H    0.088644
     4  H    0.088644
 Sum of ESP charges =   0.00000

 Summary of Natural Population Analysis:

                                       Natural Population
                Natural  -----------------------------------------------
    Atom  No    Charge         Core      Valence    Rydberg      Total
 -----------------------------------------------------------------------
      C    1   -0.43010      1.99939     4.34580    0.08491     6.43010
      S    2    0.09887      9.99854     5.75648    0.14611    15.90113
      H    3    0.16561      0.00000     0.82324    0.01115     0.83439
      H    4    0.16561      0.00000     0.82324    0.01115     0.83439
 =======================================================================
   * Total *   -0.00000     11.99793    11.74875    0.25332    24.00000

 Normal termination of Gaussian 16 at Fri Sep  2 21:30:37 2022.
