 Gaussian 16, Revision C.01,
 Gaussian 16:  EM64L-G16RevC.01  3-Jul-2019

 ----------------------------------------------------------------------
 # qcisd/aug-cc-pvtz nosymm density=current pop=(chelpg,hirshfeld,npa,d
 ipole)
 ----------------------------------------------------------------------

 -----------------
 h2cs-wavefunction
 -----------------
 Symbolic Z-matrix:
 Charge =  0 Multiplicity = 1

                          Input orientation:
 ---------------------------------------------------------------------
 Center     Atomic      Atomic             Coordinates (Angstroms)
 Number     Number       Type             X           Y           Z
 ---------------------------------------------------------------------
      1          6           0        0.010000    0.000000   -0.555291
      2         16           0        0.000000    0.000000    1.060374
      3          1           0        0.000000   -0.922280   -1.128992
      4          1           0        0.000000    0.922280   -1.128992
 ---------------------------------------------------------------------

 SCF Done:  E(RHF) =  -436.557562746     A.U. after   12 cycles
 E2 =    -0.3408766843D+00 EUMP2 =    -0.43689843942982D+03

 Alpha  occ. eigenvalues --  -91.95648 -11.32123  -8.95855  -6.63917  -6.63891
 Alpha  occ. eigenvalues --   -6.63693  -1.06422  -0.81465  -0.64493  -0.54133
 Alpha  occ. eigenvalues --   -0.41771  -0.35261
 Alpha virt. eigenvalues --    0.02840   0.03495   0.04269   0.06129   0.09229
 Alpha virt. eigenvalues --    0.10419   0.11645   0.13132   0.13507   0.14770
 Alpha virt. eigenvalues --    0.19860   0.21666   0.23063   0.24357   0.27037

 Mulliken charges:
               1
     1  C   -0.825893
     2  S   -0.065408
     3  H    0.445650
     4  H    0.445650
 Sum of Mulliken charges =  -0.00000

 Dipole moment (field-independent basis, Debye):
    X=             -0.0082    Y=             -0.0000    Z=             -1.7522  Tot=              1.7522
 Quadrupole moment (field-independent basis, Debye-Ang):
   XX=            -19.9779   YY=            -20.5756   ZZ=            -18.9728
   XY=              0.0000   XZ=             -0.0051   YZ=             -0.0000

 ESP charges:
               1
     1  C   -0.170926
     2  S   -0.121834
     3  H    0.146380
     4  H    0.146380
 Sum of ESP charges =   0.00000

 Summary of Natural Population Analysis:

                                       Natural Population
                Natural  -----------------------------------------------
    Atom  No    Charge         Core      Valence    Rydberg      Total
 -----------------------------------------------------------------------
      C    1   -0.42425      1.99939     4.34050    0.08436     6.42425
      S    2    0.09311      9.99859     5.76285    0.14544    15.90689
      H    3    0.16557      0.00000     0.82330    0.01113     0.83443
      H    4    0.16557      0.00000     0.82330    0.01113     0.83443
 =======================================================================
   * Total *   -0.00000     11.99798    11.74996    0.25206    24.00000

 Normal termination of Gaussian 16 at Fri Sep  2 20:24:32 2022.
