 Gaussian 16, Revision C.01,
 Gaussian 16:  EM64L-G16RevC.01  3-Jul-2019

 ----------------------------------------------------------------------
 # qcisd/aug-cc-pvtz nosymm density=current pop=(chelpg,hirshfeld,npa,d
 ipole)
 ----------------------------------------------------------------------

 -----------------
 h2cs-wavefunction
 -----------------
 Symbolic Z-matrix:
 Charge =  0 Multiplicity = 1

                          Input orientation:
 ---------------------------------------------------------------------
 Center     Atomic      Atomic             Coordinates (Angstroms)
 Number     Number       Type             X           Y           Z
 ---------------------------------------------------------------------
      1          6           0        0.000000    0.000000   -0.555291
      2         16           0        0.000000    0.000000    1.060374
      3          1           0        0.000000   -0.922280   -1.118992
      4          1           0        0.000000    0.922280   -1.128992
 ---------------------------------------------------------------------

 SCF Done:  E(RHF) =  -436.557632349     A.U. after   12 cycles
 E2 =    -0.3408075891D+00 EUMP2 =    -0.43689843993796D+03

 Alpha  occ. eigenvalues --  -91.95631 -11.32059  -8.95841  -6.63902  -6.63876
 Alpha  occ. eigenvalues --   -6.63678  -1.06457  -0.81488  -0.64658  -0.54100
 Alpha  occ. eigenvalues --   -0.41769  -0.35259
 Alpha virt. eigenvalues --    0.02842   0.03500   0.04266   0.06131   0.09226
 Alpha virt. eigenvalues --    0.10417   0.11648   0.13133   0.13506   0.14766
 Alpha virt. eigenvalues --    0.19840   0.21660   0.23055   0.24400   0.27074

 Mulliken charges:
               1
     1  C   -0.830535
     2  S   -0.066061
     3  H    0.451230
     4  H    0.445366
 Sum of Mulliken charges =  -0.00000

 Dipole moment (field-independent basis, Debye):
    X=              0.0000    Y=             -0.0025    Z=             -1.7549  Tot=              1.7549
 Quadrupole moment (field-independent basis, Debye-Ang):
   XX=            -19.9731   YY=            -20.5635   ZZ=            -18.9893
   XY=             -0.0000   XZ=             -0.0000   YZ=             -0.0088

 ESP charges:
               1
     1  C   -0.021862
     2  S   -0.161568
     3  H    0.091998
     4  H    0.091432
 Sum of ESP charges =   0.00000

 Summary of Natural Population Analysis:

                                       Natural Population
                Natural  -----------------------------------------------
    Atom  No    Charge         Core      Valence    Rydberg      Total
 -----------------------------------------------------------------------
      C    1   -0.42328      1.99938     4.33959    0.08431     6.42328
      S    2    0.09236      9.99859     5.76359    0.14546    15.90764
      H    3    0.16491      0.00000     0.82389    0.01120     0.83509
      H    4    0.16601      0.00000     0.82288    0.01111     0.83399
 =======================================================================
   * Total *    0.00000     11.99798    11.74995    0.25207    24.00000

 Normal termination of Gaussian 16 at Fri Sep  2 22:00:40 2022.
