 Gaussian 16, Revision C.01,
 Gaussian 16:  EM64L-G16RevC.01  3-Jul-2019

 ----------------------------------------------------------------------
 # qcisd/aug-cc-pvtz nosymm density=current pop=(chelpg,hirshfeld,npa,d
 ipole)
 ----------------------------------------------------------------------

 -----------------
 h2cs-wavefunction
 -----------------
 Symbolic Z-matrix:
 Charge =  0 Multiplicity = 1

                          Input orientation:
 ---------------------------------------------------------------------
 Center     Atomic      Atomic             Coordinates (Angstroms)
 Number     Number       Type             X           Y           Z
 ---------------------------------------------------------------------
      1          6           0        0.000000    0.000000   -0.545291
      2         16           0        0.000000    0.000000    1.060374
      3          1           0        0.000000   -0.922280   -1.128992
      4          1           0        0.000000    0.922280   -1.128992
 ---------------------------------------------------------------------

 SCF Done:  E(RHF) =  -436.557710315     A.U. after   11 cycles
 E2 =    -0.3406441306D+00 EUMP2 =    -0.43689835444531D+03

 Alpha  occ. eigenvalues --  -91.95590 -11.32049  -8.95838  -6.63905  -6.63872
 Alpha  occ. eigenvalues --   -6.63674  -1.06665  -0.81306  -0.64182  -0.54294
 Alpha  occ. eigenvalues --   -0.41988  -0.35217
 Alpha virt. eigenvalues --    0.02851   0.03624   0.04279   0.06126   0.09217
 Alpha virt. eigenvalues --    0.10419   0.11624   0.13156   0.13529   0.14784
 Alpha virt. eigenvalues --    0.19905   0.21698   0.23096   0.24300   0.27107

 Mulliken charges:
               1
     1  C   -0.817629
     2  S   -0.064528
     3  H    0.441079
     4  H    0.441079
 Sum of Mulliken charges =  -0.00000

 Dipole moment (field-independent basis, Debye):
    X=              0.0000    Y=             -0.0000    Z=             -1.7299  Tot=              1.7299
 Quadrupole moment (field-independent basis, Debye-Ang):
   XX=            -19.9537   YY=            -20.5818   ZZ=            -18.9826
   XY=             -0.0000   XZ=             -0.0000   YZ=              0.0000

 ESP charges:
               1
     1  C   -0.019461
     2  S   -0.159317
     3  H    0.089389
     4  H    0.089389
 Sum of ESP charges =   0.00000

 Summary of Natural Population Analysis:

                                       Natural Population
                Natural  -----------------------------------------------
    Atom  No    Charge         Core      Valence    Rydberg      Total
 -----------------------------------------------------------------------
      C    1   -0.43192      1.99940     4.34752    0.08500     6.43192
      S    2    0.10033      9.99853     5.75504    0.14610    15.89967
      H    3    0.16580      0.00000     0.82310    0.01110     0.83420
      H    4    0.16580      0.00000     0.82310    0.01110     0.83420
 =======================================================================
   * Total *    0.00000     11.99793    11.74877    0.25330    24.00000

 Normal termination of Gaussian 16 at Fri Sep  2 20:48:56 2022.
