 Gaussian 16, Revision C.01,
 Gaussian 16:  EM64L-G16RevC.01  3-Jul-2019

 ----------------------------------------------------------------------
 # qcisd/aug-cc-pvtz nosymm density=current pop=(chelpg,hirshfeld,npa,d
 ipole)
 ----------------------------------------------------------------------

 -----------------
 h2cs-wavefunction
 -----------------
 Symbolic Z-matrix:
 Charge =  0 Multiplicity = 1

                          Input orientation:
 ---------------------------------------------------------------------
 Center     Atomic      Atomic             Coordinates (Angstroms)
 Number     Number       Type             X           Y           Z
 ---------------------------------------------------------------------
      1          6           0        0.000000    0.000000   -0.555291
      2         16           0        0.000000    0.000000    1.060374
      3          1           0        0.000000   -0.922280   -1.128992
      4          1           0        0.000000    0.922280   -1.138992
 ---------------------------------------------------------------------

 SCF Done:  E(RHF) =  -436.557495818     A.U. after   12 cycles
 E2 =    -0.3409347182D+00 EUMP2 =    -0.43689843053626D+03

 Alpha  occ. eigenvalues --  -91.95663 -11.32186  -8.95869  -6.63931  -6.63904
 Alpha  occ. eigenvalues --   -6.63706  -1.06390  -0.81444  -0.64332  -0.54166
 Alpha  occ. eigenvalues --   -0.41774  -0.35261
 Alpha virt. eigenvalues --    0.02839   0.03495   0.04272   0.06128   0.09232
 Alpha virt. eigenvalues --    0.10422   0.11642   0.13132   0.13508   0.14776
 Alpha virt. eigenvalues --    0.19878   0.21671   0.23084   0.24301   0.26998

 Mulliken charges:
               1
     1  C   -0.821497
     2  S   -0.064907
     3  H    0.446214
     4  H    0.440190
 Sum of Mulliken charges =  -0.00000

 Dipole moment (field-independent basis, Debye):
    X=             -0.0000    Y=             -0.0027    Z=             -1.7498  Tot=              1.7498
 Quadrupole moment (field-independent basis, Debye-Ang):
   XX=            -19.9829   YY=            -20.5872   ZZ=            -18.9555
   XY=             -0.0000   XZ=              0.0000   YZ=             -0.0084

 ESP charges:
               1
     1  C   -0.023972
     2  S   -0.159699
     3  H    0.092136
     4  H    0.091535
 Sum of ESP charges =   0.00000

 Summary of Natural Population Analysis:

                                       Natural Population
                Natural  -----------------------------------------------
    Atom  No    Charge         Core      Valence    Rydberg      Total
 -----------------------------------------------------------------------
      C    1   -0.42513      1.99939     4.34134    0.08440     6.42513
      S    2    0.09382      9.99858     5.76215    0.14544    15.90618
      H    3    0.16511      0.00000     0.82374    0.01114     0.83489
      H    4    0.16620      0.00000     0.82274    0.01106     0.83380
 =======================================================================
   * Total *   -0.00000     11.99798    11.74998    0.25205    24.00000

 Normal termination of Gaussian 16 at Fri Sep  2 22:42:46 2022.
