 Gaussian 16, Revision C.01,
 Gaussian 16:  EM64L-G16RevC.01  3-Jul-2019

 ----------------------------------------------------------------------
 # qcisd/aug-cc-pvtz nosymm density=current pop=(chelpg,hirshfeld,npa,d
 ipole)
 ----------------------------------------------------------------------

 -----------------
 h2cs-wavefunction
 -----------------
 Symbolic Z-matrix:
 Charge =  0 Multiplicity = 1

                          Input orientation:
 ---------------------------------------------------------------------
 Center     Atomic      Atomic             Coordinates (Angstroms)
 Number     Number       Type             X           Y           Z
 ---------------------------------------------------------------------
      1          6           0        0.000000    0.000000   -0.555291
      2         16           0        0.000000    0.000000    1.070374
      3          1           0        0.000000   -0.922280   -1.128992
      4          1           0        0.000000    0.922280   -1.128992
 ---------------------------------------------------------------------

 SCF Done:  E(RHF) =  -436.557127693     A.U. after   12 cycles
 E2 =    -0.3412326594D+00 EUMP2 =    -0.43689836035192D+03

 Alpha  occ. eigenvalues --  -91.95734 -11.32322  -8.95899  -6.63956  -6.63935
 Alpha  occ. eigenvalues --   -6.63738  -1.06122  -0.81580  -0.64488  -0.54035
 Alpha  occ. eigenvalues --   -0.41564  -0.35303
 Alpha virt. eigenvalues --    0.02828   0.03365   0.04264   0.06130   0.09247
 Alpha virt. eigenvalues --    0.10425   0.11659   0.13108   0.13486   0.14768
 Alpha virt. eigenvalues --    0.19852   0.21642   0.23072   0.24304   0.26885

 Mulliken charges:
               1
     1  C   -0.825233
     2  S   -0.065467
     3  H    0.445350
     4  H    0.445350
 Sum of Mulliken charges =  -0.00000

 Dipole moment (field-independent basis, Debye):
    X=             -0.0000    Y=             -0.0000    Z=             -1.7694  Tot=              1.7694
 Quadrupole moment (field-independent basis, Debye-Ang):
   XX=            -20.0116   YY=            -20.5925   ZZ=            -18.9637
   XY=             -0.0000   XZ=              0.0000   YZ=             -0.0000

 ESP charges:
               1
     1  C   -0.027764
     2  S   -0.160254
     3  H    0.094009
     4  H    0.094009
 Sum of ESP charges =  -0.00000

 Summary of Natural Population Analysis:

                                       Natural Population
                Natural  -----------------------------------------------
    Atom  No    Charge         Core      Valence    Rydberg      Total
 -----------------------------------------------------------------------
      C    1   -0.41837      1.99939     4.33517    0.08382     6.41837
      S    2    0.08741      9.99863     5.76916    0.14480    15.91259
      H    3    0.16548      0.00000     0.82341    0.01111     0.83452
      H    4    0.16548      0.00000     0.82341    0.01111     0.83452
 =======================================================================
   * Total *   -0.00000     11.99802    11.75115    0.25083    24.00000

 Normal termination of Gaussian 16 at Fri Sep  2 21:24:41 2022.
