 Gaussian 16, Revision C.01,
 Gaussian 16:  EM64L-G16RevC.01  3-Jul-2019

 ----------------------------------------------------------------------
 # qcisd/aug-cc-pvtz nosymm density=current pop=(chelpg,hirshfeld,npa,d
 ipole)
 ----------------------------------------------------------------------

 -----------------
 h2cs-wavefunction
 -----------------
 Symbolic Z-matrix:
 Charge =  0 Multiplicity = 1

                          Input orientation:
 ---------------------------------------------------------------------
 Center     Atomic      Atomic             Coordinates (Angstroms)
 Number     Number       Type             X           Y           Z
 ---------------------------------------------------------------------
      1          6           0        0.000000    0.000000   -0.555291
      2         16           0        0.000000    0.000000    1.060374
      3          1           0        0.000000   -0.932280   -1.128992
      4          1           0        0.000000    0.922280   -1.128992
 ---------------------------------------------------------------------

 SCF Done:  E(RHF) =  -436.557429790     A.U. after   11 cycles
 E2 =    -0.3409881523D+00 EUMP2 =    -0.43689841794204D+03

 Alpha  occ. eigenvalues --  -91.95644 -11.32212  -8.95853  -6.63914  -6.63888
 Alpha  occ. eigenvalues --   -6.63690  -1.06389  -0.81328  -0.64398  -0.54099
 Alpha  occ. eigenvalues --   -0.41773  -0.35251
 Alpha virt. eigenvalues --    0.02843   0.03501   0.04267   0.06129   0.09233
 Alpha virt. eigenvalues --    0.10417   0.11645   0.13134   0.13508   0.14771
 Alpha virt. eigenvalues --    0.19798   0.21662   0.23052   0.24328   0.27054

 Mulliken charges:
               1
     1  C   -0.819553
     2  S   -0.064339
     3  H    0.436625
     4  H    0.447267
 Sum of Mulliken charges =  -0.00000

 Dipole moment (field-independent basis, Debye):
    X=             -0.0000    Y=              0.0001    Z=             -1.7486  Tot=              1.7486
 Quadrupole moment (field-independent basis, Debye-Ang):
   XX=            -19.9880   YY=            -20.5640   ZZ=            -18.9903
   XY=              0.0000   XZ=              0.0000   YZ=             -0.0062

 ESP charges:
               1
     1  C   -0.021031
     2  S   -0.160770
     3  H    0.090405
     4  H    0.091397
 Sum of ESP charges =  -0.00000

 Summary of Natural Population Analysis:

                                       Natural Population
                Natural  -----------------------------------------------
    Atom  No    Charge         Core      Valence    Rydberg      Total
 -----------------------------------------------------------------------
      C    1   -0.42661      1.99940     4.34267    0.08454     6.42661
      S    2    0.09334      9.99858     5.76259    0.14549    15.90666
      H    3    0.16719      0.00000     0.82172    0.01109     0.83281
      H    4    0.16607      0.00000     0.82280    0.01113     0.83393
 =======================================================================
   * Total *    0.00000     11.99798    11.74978    0.25224    24.00000

 Normal termination of Gaussian 16 at Fri Sep  2 21:54:42 2022.
