 Gaussian 16, Revision C.01,
 Gaussian 16:  EM64L-G16RevC.01  3-Jul-2019

 ----------------------------------------------------------------------
 # qcisd/aug-cc-pvtz nosymm density=current pop=(chelpg,hirshfeld,npa,d
 ipole)
 ----------------------------------------------------------------------

 -----------------
 h2cs-wavefunction
 -----------------
 Symbolic Z-matrix:
 Charge =  0 Multiplicity = 1

                          Input orientation:
 ---------------------------------------------------------------------
 Center     Atomic      Atomic             Coordinates (Angstroms)
 Number     Number       Type             X           Y           Z
 ---------------------------------------------------------------------
      1          6           0        0.000000    0.000000   -0.565291
      2         16           0        0.000000    0.000000    1.060374
      3          1           0        0.000000   -0.922280   -1.128992
      4          1           0        0.000000    0.922280   -1.128992
 ---------------------------------------------------------------------

 SCF Done:  E(RHF) =  -436.557223177     A.U. after   12 cycles
 E2 =    -0.3411115500D+00 EUMP2 =    -0.43689833472672D+03

 Alpha  occ. eigenvalues --  -91.95703 -11.32196  -8.95871  -6.63928  -6.63908
 Alpha  occ. eigenvalues --   -6.63710  -1.06191  -0.81622  -0.64815  -0.53969
 Alpha  occ. eigenvalues --   -0.41559  -0.35301
 Alpha virt. eigenvalues --    0.02830   0.03370   0.04259   0.06132   0.09241
 Alpha virt. eigenvalues --    0.10419   0.11664   0.13110   0.13484   0.14758
 Alpha virt. eigenvalues --    0.19814   0.21631   0.23043   0.24402   0.26959

 Mulliken charges:
               1
     1  C   -0.834146
     2  S   -0.066591
     3  H    0.450368
     4  H    0.450368
 Sum of Mulliken charges =  -0.00000

 Dipole moment (field-independent basis, Debye):
    X=              0.0000    Y=             -0.0000    Z=             -1.7741  Tot=              1.7741
 Quadrupole moment (field-independent basis, Debye-Ang):
   XX=            -20.0018   YY=            -20.5690   ZZ=            -18.9624
   XY=             -0.0000   XZ=             -0.0000   YZ=             -0.0000

 ESP charges:
               1
     1  C   -0.024987
     2  S   -0.162273
     3  H    0.093630
     4  H    0.093630
 Sum of ESP charges =   0.00000

 Summary of Natural Population Analysis:

                                       Natural Population
                Natural  -----------------------------------------------
    Atom  No    Charge         Core      Valence    Rydberg      Total
 -----------------------------------------------------------------------
      C    1   -0.41649      1.99938     4.33339    0.08372     6.41649
      S    2    0.08594      9.99864     5.77060    0.14482    15.91406
      H    3    0.16527      0.00000     0.82357    0.01116     0.83473
      H    4    0.16527      0.00000     0.82357    0.01116     0.83473
 =======================================================================
   * Total *    0.00000     11.99802    11.75112    0.25086    24.00000

 Normal termination of Gaussian 16 at Fri Sep  2 20:54:49 2022.
