 Gaussian 16, Revision C.01,
 Gaussian 16:  EM64L-G16RevC.01  3-Jul-2019

 ----------------------------------------------------------------------
 # qcisd/aug-cc-pvtz nosymm density=current pop=(chelpg,hirshfeld,npa,d
 ipole)
 ----------------------------------------------------------------------

 -----------------
 h2cs-wavefunction
 -----------------
 Symbolic Z-matrix:
 Charge =  0 Multiplicity = 1

                          Input orientation:
 ---------------------------------------------------------------------
 Center     Atomic      Atomic             Coordinates (Angstroms)
 Number     Number       Type             X           Y           Z
 ---------------------------------------------------------------------
      1          6           0        0.000000    0.010000   -0.555291
      2         16           0        0.000000    0.000000    1.060374
      3          1           0        0.000000   -0.922280   -1.128992
      4          1           0        0.000000    0.922280   -1.128992
 ---------------------------------------------------------------------

 SCF Done:  E(RHF) =  -436.557480619     A.U. after   12 cycles
 E2 =    -0.3408745856D+00 EUMP2 =    -0.43689835520460D+03

 Alpha  occ. eigenvalues --  -91.95648 -11.32123  -8.95856  -6.63917  -6.63891
 Alpha  occ. eigenvalues --   -6.63693  -1.06423  -0.81476  -0.64490  -0.54132
 Alpha  occ. eigenvalues --   -0.41771  -0.35260
 Alpha virt. eigenvalues --    0.02840   0.03496   0.04269   0.06130   0.09229
 Alpha virt. eigenvalues --    0.10419   0.11645   0.13132   0.13507   0.14770
 Alpha virt. eigenvalues --    0.19858   0.21665   0.23070   0.24352   0.27036

 Mulliken charges:
               1
     1  C   -0.825930
     2  S   -0.065475
     3  H    0.434790
     4  H    0.456615
 Sum of Mulliken charges =  -0.00000

 Dipole moment (field-independent basis, Debye):
    X=             -0.0000    Y=              0.0079    Z=             -1.7521  Tot=              1.7521
 Quadrupole moment (field-independent basis, Debye-Ang):
   XX=            -19.9780   YY=            -20.5751   ZZ=            -18.9729
   XY=              0.0000   XZ=              0.0000   YZ=             -0.0478

 ESP charges:
               1
     1  C   -0.022312
     2  S   -0.160769
     3  H    0.090526
     4  H    0.092556
 Sum of ESP charges =   0.00000

 Summary of Natural Population Analysis:

                                       Natural Population
                Natural  -----------------------------------------------
    Atom  No    Charge         Core      Valence    Rydberg      Total
 -----------------------------------------------------------------------
      C    1   -0.42404      1.99939     4.34030    0.08435     6.42404
      S    2    0.09308      9.99859     5.76288    0.14545    15.90692
      H    3    0.16641      0.00000     0.82247    0.01112     0.83359
      H    4    0.16454      0.00000     0.82432    0.01114     0.83546
 =======================================================================
   * Total *   -0.00000     11.99798    11.74997    0.25205    24.00000

 Normal termination of Gaussian 16 at Fri Sep  2 20:36:41 2022.
