 Gaussian 16, Revision C.01,
 Gaussian 16:  EM64L-G16RevC.01  3-Jul-2019

 ----------------------------------------------------------------------
 # qcisd/aug-cc-pvtz nosymm density=current pop=(chelpg,hirshfeld,npa,d
 ipole)
 ----------------------------------------------------------------------

 -----------------
 h2cs-wavefunction
 -----------------
 Symbolic Z-matrix:
 Charge =  0 Multiplicity = 1

                          Input orientation:
 ---------------------------------------------------------------------
 Center     Atomic      Atomic             Coordinates (Angstroms)
 Number     Number       Type             X           Y           Z
 ---------------------------------------------------------------------
      1          6           0        0.000000    0.000000   -0.555291
      2         16           0        0.000000    0.000000    1.060374
      3          1           0        0.010000   -0.922280   -1.128992
      4          1           0        0.000000    0.922280   -1.128992
 ---------------------------------------------------------------------

 SCF Done:  E(RHF) =  -436.557585571     A.U. after   12 cycles
 E2 =    -0.3408706626D+00 EUMP2 =    -0.43689845623372D+03

 Alpha  occ. eigenvalues --  -91.95647 -11.32123  -8.95855  -6.63916  -6.63890
 Alpha  occ. eigenvalues --   -6.63692  -1.06423  -0.81466  -0.64495  -0.54133
 Alpha  occ. eigenvalues --   -0.41771  -0.35260
 Alpha virt. eigenvalues --    0.02840   0.03497   0.04269   0.06130   0.09229
 Alpha virt. eigenvalues --    0.10419   0.11645   0.13132   0.13507   0.14771
 Alpha virt. eigenvalues --    0.19859   0.21666   0.23069   0.24352   0.27036

 Mulliken charges:
               1
     1  C   -0.826044
     2  S   -0.065465
     3  H    0.445726
     4  H    0.445783
 Sum of Mulliken charges =  -0.00000

 Dipole moment (field-independent basis, Debye):
    X=              0.0070    Y=              0.0000    Z=             -1.7523  Tot=              1.7524
 Quadrupole moment (field-independent basis, Debye-Ang):
   XX=            -19.9779   YY=            -20.5753   ZZ=            -18.9725
   XY=              0.0032   XZ=             -0.0047   YZ=             -0.0001

 ESP charges:
               1
     1  C   -0.170919
     2  S   -0.121849
     3  H    0.146380
     4  H    0.146388
 Sum of ESP charges =   0.00000

 Summary of Natural Population Analysis:

                                       Natural Population
                Natural  -----------------------------------------------
    Atom  No    Charge         Core      Valence    Rydberg      Total
 -----------------------------------------------------------------------
      C    1   -0.42422      1.99939     4.34048    0.08436     6.42422
      S    2    0.09310      9.99859     5.76286    0.14545    15.90690
      H    3    0.16556      0.00000     0.82331    0.01113     0.83444
      H    4    0.16556      0.00000     0.82331    0.01113     0.83444
 =======================================================================
   * Total *    0.00000     11.99798    11.74996    0.25206    24.00000

 Normal termination of Gaussian 16 at Fri Sep  2 21:36:46 2022.
