 Gaussian 16, Revision C.01,
 Gaussian 16:  EM64L-G16RevC.01  3-Jul-2019

 ----------------------------------------------------------------------
 # qcisd/aug-cc-pvtz nosymm density=current pop=(chelpg,hirshfeld,npa,d
 ipole)
 ----------------------------------------------------------------------

 -----------------
 h2cs-wavefunction
 -----------------
 Symbolic Z-matrix:
 Charge =  0 Multiplicity = 1

                          Input orientation:
 ---------------------------------------------------------------------
 Center     Atomic      Atomic             Coordinates (Angstroms)
 Number     Number       Type             X           Y           Z
 ---------------------------------------------------------------------
      1          6           0        0.000000    0.000000   -0.555291
      2         16           0        0.000000    0.000000    1.060374
      3          1           0        0.000000   -0.922280   -1.128992
      4          1           0        0.000000    0.912280   -1.128992
 ---------------------------------------------------------------------

 SCF Done:  E(RHF) =  -436.557647869     A.U. after   12 cycles
 E2 =    -0.3407539843D+00 EUMP2 =    -0.43689840185327D+03

 Alpha  occ. eigenvalues --  -91.95650 -11.32033  -8.95857  -6.63919  -6.63892
 Alpha  occ. eigenvalues --   -6.63694  -1.06458  -0.81610  -0.64591  -0.54167
 Alpha  occ. eigenvalues --   -0.41770  -0.35270
 Alpha virt. eigenvalues --    0.02838   0.03493   0.04270   0.06130   0.09226
 Alpha virt. eigenvalues --    0.10421   0.11644   0.13130   0.13506   0.14770
 Alpha virt. eigenvalues --    0.19920   0.21670   0.23087   0.24375   0.27018

 Mulliken charges:
               1
     1  C   -0.832359
     2  S   -0.066657
     3  H    0.444270
     4  H    0.454745
 Sum of Mulliken charges =  -0.00000

 Dipole moment (field-independent basis, Debye):
    X=              0.0000    Y=             -0.0000    Z=             -1.7560  Tot=              1.7560
 Quadrupole moment (field-independent basis, Debye-Ang):
   XX=            -19.9679   YY=            -20.5866   ZZ=            -18.9544
   XY=             -0.0000   XZ=             -0.0000   YZ=             -0.0060

 ESP charges:
               1
     1  C   -0.021992
     2  S   -0.161221
     3  H    0.091111
     4  H    0.092102
 Sum of ESP charges =   0.00000

 Summary of Natural Population Analysis:

                                       Natural Population
                Natural  -----------------------------------------------
    Atom  No    Charge         Core      Valence    Rydberg      Total
 -----------------------------------------------------------------------
      C    1   -0.42171      1.99938     4.33816    0.08417     6.42171
      S    2    0.09284      9.99859     5.76316    0.14541    15.90716
      H    3    0.16502      0.00000     0.82384    0.01113     0.83498
      H    4    0.16385      0.00000     0.82498    0.01117     0.83615
 =======================================================================
   * Total *   -0.00000     11.99797    11.75015    0.25188    24.00000

 Normal termination of Gaussian 16 at Fri Sep  2 22:30:17 2022.
