 Gaussian 16, Revision C.01,
 Gaussian 16:  EM64L-G16RevC.01  3-Jul-2019

 ----------------------------------------------------------------------
 # qcisd/aug-cc-pvtz nosymm density=current pop=(chelpg,hirshfeld,npa,d
 ipole)
 ----------------------------------------------------------------------

 -----------------
 h2cs-wavefunction
 -----------------
 Symbolic Z-matrix:
 Charge =  0 Multiplicity = 1

                          Input orientation:
 ---------------------------------------------------------------------
 Center     Atomic      Atomic             Coordinates (Angstroms)
 Number     Number       Type             X           Y           Z
 ---------------------------------------------------------------------
      1          6           0        0.000000    0.000000   -0.555291
      2         16           0       -0.010000    0.000000    1.060374
      3          1           0        0.000000   -0.922280   -1.128992
      4          1           0        0.000000    0.922280   -1.128992
 ---------------------------------------------------------------------

 SCF Done:  E(RHF) =  -436.557586631     A.U. after   12 cycles
 E2 =    -0.3408708419D+00 EUMP2 =    -0.43689845747251D+03

 Alpha  occ. eigenvalues --  -91.95647 -11.32123  -8.95855  -6.63916  -6.63890
 Alpha  occ. eigenvalues --   -6.63692  -1.06422  -0.81467  -0.64496  -0.54133
 Alpha  occ. eigenvalues --   -0.41771  -0.35261
 Alpha virt. eigenvalues --    0.02840   0.03497   0.04269   0.06130   0.09229
 Alpha virt. eigenvalues --    0.10419   0.11645   0.13132   0.13507   0.14771
 Alpha virt. eigenvalues --    0.19859   0.21666   0.23069   0.24352   0.27036

 Mulliken charges:
               1
     1  C   -0.826087
     2  S   -0.065474
     3  H    0.445780
     4  H    0.445780
 Sum of Mulliken charges =  -0.00000

 Dipole moment (field-independent basis, Debye):
    X=              0.0059    Y=             -0.0000    Z=             -1.7524  Tot=              1.7524
 Quadrupole moment (field-independent basis, Debye-Ang):
   XX=            -19.9781   YY=            -20.5754   ZZ=            -18.9724
   XY=              0.0000   XZ=              0.0031   YZ=              0.0000

 ESP charges:
               1
     1  C   -0.170915
     2  S   -0.121859
     3  H    0.146387
     4  H    0.146387
 Sum of ESP charges =  -0.00000

 Summary of Natural Population Analysis:

                                       Natural Population
                Natural  -----------------------------------------------
    Atom  No    Charge         Core      Valence    Rydberg      Total
 -----------------------------------------------------------------------
      C    1   -0.42419      1.99939     4.34045    0.08435     6.42419
      S    2    0.09308      9.99859     5.76289    0.14545    15.90692
      H    3    0.16556      0.00000     0.82332    0.01113     0.83444
      H    4    0.16556      0.00000     0.82332    0.01113     0.83444
 =======================================================================
   * Total *    0.00000     11.99798    11.74997    0.25206    24.00000

 Normal termination of Gaussian 16 at Fri Sep  2 21:06:50 2022.
