 Gaussian 09, Revision B.01,
 Gaussian 09:  EM64L-G09RevB.01 12-Aug-2010

 -----------------------------------------------------
 # qcisd/aug-cc-pvtz nosymm density=current output=wfn
 -----------------------------------------------------

 -----------------
 h2co-wavefunction
 -----------------
 Symbolic Z-matrix:
 Charge =  0 Multiplicity = 1

                          Input orientation:
 ---------------------------------------------------------------------
 Center     Atomic      Atomic             Coordinates (Angstroms)
 Number     Number       Type             X           Y           Z
 ---------------------------------------------------------------------
      1          8           0        0.010000    0.000000    0.679252
      2          6           0        0.000000    0.000000   -0.526911
      3          1           0        0.000000    0.936614   -1.106620
      4          1           0        0.000000   -0.936614   -1.106620
 ---------------------------------------------------------------------

 SCF Done:  E(RHF) =  -113.913818595     A.U. after   11 cycles
 E2 =    -0.4025235216D+00 EUMP2 =    -0.11431634211665D+03

 Mulliken atomic charges:
              1
     1  O   -0.417415
     2  C   -0.484234
     3  H    0.450824
     4  H    0.450824
 Sum of Mulliken atomic charges =   0.00000

 Dipole moment (field-independent basis, Debye):
    X=             -0.0159    Y=              0.0000    Z=             -2.4422  Tot=              2.4422
 Quadrupole moment (field-independent basis, Debye-Ang):
   XX=            -11.7381   YY=            -11.6215   ZZ=            -12.2707
   XY=              0.0000   XZ=             -0.0189   YZ=              0.0000

 Normal termination of Gaussian 09 at Sat Nov 20 17:21:58 2021.
