 Gaussian 09, Revision B.01,
 Gaussian 09:  EM64L-G09RevB.01 12-Aug-2010

 -----------------------------------------------------
 # qcisd/aug-cc-pvtz nosymm density=current output=wfn
 -----------------------------------------------------

 -----------------
 h2co-wavefunction
 -----------------
 Symbolic Z-matrix:
 Charge =  0 Multiplicity = 1

                          Input orientation:
 ---------------------------------------------------------------------
 Center     Atomic      Atomic             Coordinates (Angstroms)
 Number     Number       Type             X           Y           Z
 ---------------------------------------------------------------------
      1          8           0        0.000000    0.000000    0.679252
      2          6           0        0.000000    0.000000   -0.526911
      3          1           0        0.000000    0.936614   -1.106620
      4          1           0        0.000000   -0.936614   -1.116620
 ---------------------------------------------------------------------

 SCF Done:  E(RHF) =  -113.913712721     A.U. after   11 cycles
 E2 =    -0.4026081503D+00 EUMP2 =    -0.11431632087130D+03

 Mulliken atomic charges:
              1
     1  O   -0.416078
     2  C   -0.479354
     3  H    0.450148
     4  H    0.445285
 Sum of Mulliken atomic charges =   0.00000

 Dipole moment (field-independent basis, Debye):
    X=              0.0000    Y=              0.0038    Z=             -2.4396  Tot=              2.4396
 Quadrupole moment (field-independent basis, Debye-Ang):
   XX=            -11.7426   YY=            -11.6370   ZZ=            -12.2621
   XY=              0.0000   XZ=              0.0000   YZ=              0.0042

 Normal termination of Gaussian 09 at Sat Nov 20 19:01:22 2021.
