 Gaussian 09, Revision B.01,
 Gaussian 09:  EM64L-G09RevB.01 12-Aug-2010

 -----------------------------------------------------
 # qcisd/aug-cc-pvtz nosymm density=current output=wfn
 -----------------------------------------------------

 -----------------
 h2co-wavefunction
 -----------------
 Symbolic Z-matrix:
 Charge =  0 Multiplicity = 1

                          Input orientation:
 ---------------------------------------------------------------------
 Center     Atomic      Atomic             Coordinates (Angstroms)
 Number     Number       Type             X           Y           Z
 ---------------------------------------------------------------------
      1          8           0        0.000000   -0.010000    0.679252
      2          6           0        0.000000    0.000000   -0.526911
      3          1           0        0.000000    0.936614   -1.106620
      4          1           0        0.000000   -0.936614   -1.106620
 ---------------------------------------------------------------------

 SCF Done:  E(RHF) =  -113.913808320     A.U. after   11 cycles
 E2 =    -0.4025240390D+00 EUMP2 =    -0.11431633235894D+03

 Mulliken atomic charges:
              1
     1  O   -0.417408
     2  C   -0.484279
     3  H    0.452316
     4  H    0.449370
 Sum of Mulliken atomic charges =   0.00000

 Dipole moment (field-independent basis, Debye):
    X=              0.0000    Y=              0.0217    Z=             -2.4422  Tot=              2.4423
 Quadrupole moment (field-independent basis, Debye-Ang):
   XX=            -11.7379   YY=            -11.6215   ZZ=            -12.2709
   XY=              0.0000   XZ=              0.0000   YZ=             -0.0031

 Normal termination of Gaussian 09 at Sat Nov 20 17:35:33 2021.
