 Gaussian 09, Revision B.01,
 Gaussian 09:  EM64L-G09RevB.01 12-Aug-2010

 -----------------------------------------------------
 # qcisd/aug-cc-pvtz nosymm density=current output=wfn
 -----------------------------------------------------

 -----------------
 h2co-wavefunction
 -----------------
 Symbolic Z-matrix:
 Charge =  0 Multiplicity = 1

                          Input orientation:
 ---------------------------------------------------------------------
 Center     Atomic      Atomic             Coordinates (Angstroms)
 Number     Number       Type             X           Y           Z
 ---------------------------------------------------------------------
      1          8           0        0.000000    0.000000    0.679252
      2          6           0        0.000000    0.010000   -0.526911
      3          1           0        0.000000    0.936614   -1.106620
      4          1           0        0.000000   -0.936614   -1.106620
 ---------------------------------------------------------------------

 SCF Done:  E(RHF) =  -113.913709450     A.U. after   11 cycles
 E2 =    -0.4025278507D+00 EUMP2 =    -0.11431623730042D+03

 Mulliken atomic charges:
              1
     1  O   -0.417478
     2  C   -0.484162
     3  H    0.463168
     4  H    0.438472
 Sum of Mulliken atomic charges =   0.00000

 Dipole moment (field-independent basis, Debye):
    X=              0.0000    Y=              0.0368    Z=             -2.4417  Tot=              2.4420
 Quadrupole moment (field-independent basis, Debye-Ang):
   XX=            -11.7380   YY=            -11.6213   ZZ=            -12.2715
   XY=              0.0000   XZ=              0.0000   YZ=             -0.0532

 Normal termination of Gaussian 09 at Sat Nov 20 17:56:50 2021.
