 Gaussian 09, Revision B.01,
 Gaussian 09:  EM64L-G09RevB.01 12-Aug-2010

 --------------------------------------------
 #opt qcisd/aug-cc-pvtz density=current nosym
 --------------------------------------------

 -----
 br2cs
 -----
 Symbolic Z-matrix:
 Charge =  0 Multiplicity = 1

 SCF Done:  E(RHF) =  -5580.30507828     A.U. after   14 cycles
 E2 =    -0.8080943214D+00 EUMP2 =    -0.55811131726015D+04
 SCF Done:  E(RHF) =  -5580.30877274     A.U. after   12 cycles
 E2 =    -0.8098621811D+00 EUMP2 =    -0.55811186349253D+04
 SCF Done:  E(RHF) =  -5580.30868161     A.U. after   10 cycles
 E2 =    -0.8101092844D+00 EUMP2 =    -0.55811187908959D+04
 SCF Done:  E(RHF) =  -5580.30868089     A.U. after    8 cycles
 E2 =    -0.8101040674D+00 EUMP2 =    -0.55811187849580D+04
 Optimization completed.
    -- Stationary point found.

                          Input orientation:
 ---------------------------------------------------------------------
 Center     Atomic      Atomic             Coordinates (Angstroms)
 Number     Number       Type             X           Y           Z
 ---------------------------------------------------------------------
      1          6           0        0.000000    0.000000   -0.519451
      2         16           0        0.000000    0.000000    1.083692
      3         35           0        0.000000   -1.568516   -1.578570
      4         35           0        0.000000    1.568516   -1.578570
 ---------------------------------------------------------------------

 Alpha  occ. eigenvalues -- -490.06361-490.06361 -91.98023 -65.20341 -65.20341
 Alpha  occ. eigenvalues --  -58.55875 -58.55875 -58.55724 -58.55724 -58.55705
 Alpha  occ. eigenvalues --  -58.55705 -11.43410  -9.87646  -9.87645  -8.98292
 Alpha  occ. eigenvalues --   -7.48840  -7.48839  -7.48111  -7.48111  -7.48033
 Alpha  occ. eigenvalues --   -7.48032  -6.66359  -6.66275  -6.66119  -3.23247
 Alpha  occ. eigenvalues --   -3.23246  -3.22887  -3.22886  -3.22779  -3.22778
 Alpha  occ. eigenvalues --   -3.21853  -3.21852  -3.21850  -3.21850  -1.16791
 Alpha  occ. eigenvalues --   -1.04150  -1.01489  -0.74033  -0.59711  -0.58346
 Alpha  occ. eigenvalues --   -0.54051  -0.46258  -0.44556  -0.42867  -0.39719
 Alpha  occ. eigenvalues --   -0.37182
 Alpha virt. eigenvalues --    0.01303   0.04662   0.05711   0.06063   0.08381
 Alpha virt. eigenvalues --    0.08954   0.09153   0.10092   0.11087   0.11455
 Alpha virt. eigenvalues --    0.12003   0.13414   0.14426   0.15451   0.15755

 Mulliken atomic charges:
              1
     1  C   -0.160309
     2  S   -0.044538
     3  Br   0.102424
     4  Br   0.102424
 Sum of Mulliken atomic charges =   0.00000

 Dipole moment (field-independent basis, Debye):
    X=              0.0000    Y=              0.0000    Z=             -0.4733  Tot=              0.4733
 Quadrupole moment (field-independent basis, Debye-Ang):
   XX=            -54.9569   YY=            -53.8191   ZZ=            -53.7720
   XY=              0.0000   XZ=              0.0000   YZ=              0.0000

 Normal termination of Gaussian 09 at Fri Nov 19 06:38:46 2021.
