 Gaussian 09, Revision B.01,
 Gaussian 09:  EM64L-G09RevB.01 12-Aug-2010

 ----------------------------------------------------------------------
 #freq=noraman qcisd/aug-cc-pvtz density=current iop(7/33=1) nosym form
 check=forcecart
 ----------------------------------------------------------------------

 -----------------
 br2cs-frequencies
 -----------------
 Symbolic Z-matrix:
 Charge =  0 Multiplicity = 1

                          Input orientation:
 ---------------------------------------------------------------------
 Center     Atomic      Atomic             Coordinates (Angstroms)
 Number     Number       Type             X           Y           Z
 ---------------------------------------------------------------------
      1          6           0        0.000000    0.000000   -0.519451
      2         16           0        0.000000    0.000000    1.083692
      3         35           0        0.000000   -1.568516   -1.578570
      4         35           0        0.000000    1.568516   -1.578570
 ---------------------------------------------------------------------

 SCF Done:  E(RHF) =  -5580.30868088     A.U. after   14 cycles
 E2 =    -0.8101040723D+00 EUMP2 =    -0.55811187849536D+04
 SCF Done:  E(RHF) =  -5580.30868071     A.U. after    7 cycles
 E2 =    -0.8101040878D+00 EUMP2 =    -0.55811187847957D+04
 SCF Done:  E(RHF) =  -5580.30868071     A.U. after    8 cycles
 E2 =    -0.8101041073D+00 EUMP2 =    -0.55811187848152D+04
 SCF Done:  E(RHF) =  -5580.30868040     A.U. after    7 cycles
 E2 =    -0.8101041892D+00 EUMP2 =    -0.55811187845941D+04
 SCF Done:  E(RHF) =  -5580.30868040     A.U. after    8 cycles
 E2 =    -0.8101041778D+00 EUMP2 =    -0.55811187845827D+04
 SCF Done:  E(RHF) =  -5580.30870534     A.U. after    9 cycles
 E2 =    -0.8100738641D+00 EUMP2 =    -0.55811187792029D+04
 SCF Done:  E(RHF) =  -5580.30865464     A.U. after    9 cycles
 E2 =    -0.8101343834D+00 EUMP2 =    -0.55811187890271D+04
 SCF Done:  E(RHF) =  -5580.30868085     A.U. after    6 cycles
 E2 =    -0.8101040967D+00 EUMP2 =    -0.55811187849422D+04
 SCF Done:  E(RHF) =  -5580.30868085     A.U. after    7 cycles
 E2 =    -0.8101040765D+00 EUMP2 =    -0.55811187849220D+04
 SCF Done:  E(RHF) =  -5580.30868079     A.U. after    7 cycles
 E2 =    -0.8101040906D+00 EUMP2 =    -0.55811187848761D+04
 E2 =    -0.8101041067D+00 EUMP2 =    -0.55811187848922D+04
 E2 =    -0.8101420723D+00 EUMP2 =    -0.55811187876312D+04
 E2 =    -0.8100661089D+00 EUMP2 =    -0.55811187807320D+04
 E2 =    -0.8101040841D+00 EUMP2 =    -0.55811187849496D+04
 E2 =    -0.8101040736D+00 EUMP2 =    -0.55811187849391D+04
 SCF Done:  E(RHF) =  -5580.30868337     A.U. after    7 cycles
 E2 =    -0.8101055002D+00 EUMP2 =    -0.55811187888699D+04
 SCF Done:  E(RHF) =  -5580.30867784     A.U. after    8 cycles
 E2 =    -0.8101027102D+00 EUMP2 =    -0.55811187805550D+04
 SCF Done:  E(RHF) =  -5580.30868532     A.U. after    7 cycles
 E2 =    -0.8101002050D+00 EUMP2 =    -0.55811187855219D+04
 SCF Done:  E(RHF) =  -5580.30867613     A.U. after    8 cycles
 E2 =    -0.8101079624D+00 EUMP2 =    -0.55811187840945D+04
 SCF Done:  E(RHF) =  -5580.30868087     A.U. after    8 cycles
 E2 =    -0.8101040841D+00 EUMP2 =    -0.55811187849496D+04
 SCF Done:  E(RHF) =  -5580.30868087     A.U. after    9 cycles
 E2 =    -0.8101040736D+00 EUMP2 =    -0.55811187849391D+04
 SCF Done:  E(RHF) =  -5580.30867784     A.U. after    7 cycles
 E2 =    -0.8101027175D+00 EUMP2 =    -0.55811187805624D+04
 SCF Done:  E(RHF) =  -5580.30868337     A.U. after    8 cycles
 E2 =    -0.8101055077D+00 EUMP2 =    -0.55811187888774D+04
 SCF Done:  E(RHF) =  -5580.30868532     A.U. after    7 cycles
 E2 =    -0.8101002050D+00 EUMP2 =    -0.55811187855218D+04
 SCF Done:  E(RHF) =  -5580.30867613     A.U. after    8 cycles
 E2 =    -0.8101079624D+00 EUMP2 =    -0.55811187840945D+04

 Alpha  occ. eigenvalues -- -490.06361-490.06359 -91.98028 -65.20341 -65.20339
 Alpha  occ. eigenvalues --  -58.55875 -58.55873 -58.55724 -58.55722 -58.55705
 Alpha  occ. eigenvalues --  -58.55703 -11.43415  -9.87646  -9.87643  -8.98297
 Alpha  occ. eigenvalues --   -7.48840  -7.48837  -7.48111  -7.48108  -7.48033
 Alpha  occ. eigenvalues --   -7.48030  -6.66364  -6.66279  -6.66123  -3.23247
 Alpha  occ. eigenvalues --   -3.23244  -3.22887  -3.22884  -3.22779  -3.22776
 Alpha  occ. eigenvalues --   -3.21853  -3.21850  -3.21850  -3.21847  -1.16784
 Alpha  occ. eigenvalues --   -1.04144  -1.01492  -0.74032  -0.59705  -0.58346
 Alpha  occ. eigenvalues --   -0.54047  -0.46260  -0.44554  -0.42863  -0.39723
 Alpha  occ. eigenvalues --   -0.37186
 Alpha virt. eigenvalues --    0.01302   0.04659   0.05711   0.06062   0.08379
 Alpha virt. eigenvalues --    0.08954   0.09151   0.10092   0.11087   0.11455
 Alpha virt. eigenvalues --    0.12000   0.13414   0.14424   0.15450   0.15755

 Mulliken atomic charges:
              1
     1  C   -0.160033
     2  S   -0.044345
     3  Br   0.102508
     4  Br   0.101870
 Sum of Mulliken atomic charges =   0.00000

 Dipole moment (field-independent basis, Debye):
    X=              0.0000    Y=             -0.0016    Z=             -0.4717  Tot=              0.4717
 Quadrupole moment (field-independent basis, Debye-Ang):
   XX=            -54.9579   YY=            -53.8225   ZZ=            -53.7700
   XY=              0.0000   XZ=              0.0000   YZ=              0.0007

                     1                      2                      3
                     A                      A                      A
 Frequencies --   187.6921               236.5766               380.0741
 Red. masses --    56.0660                42.1247                33.1630
 Frc consts  --     1.1637                 1.3891                 2.8225
 IR Inten    --     0.1052                 0.0229                 7.3820

                     4                      5                      6
                     A                      A                      A
 Frequencies --   430.7334               740.5290              1147.0498
 Red. masses --    12.7071                12.7574                13.8615
 Frc consts  --     1.3890                 4.1219                10.7454
 IR Inten    --     2.4089               168.9367               238.8926

 - Thermochemistry -
 -------------------
 Temperature   298.150 Kelvin.  Pressure   1.00000 Atm.
 Atom     1 has atomic number  6 and mass  12.00000

 Molecular mass:   201.80874 amu.
 Principal axes and moments of inertia in atomic units:
                           1         2         3
     Eigenvalues --   687.948191386.703332074.65152
           X            0.00000   0.00000   1.00000
           Y            1.00000   0.00000   0.00000
           Z            0.00000   1.00000   0.00000
 This molecule is an asymmetric top.
 Rotational symmetry number  2.
 Warning -- assumption of classical behavior for rotation
           may cause significant error
 Rotational temperatures (Kelvin)      0.12590     0.06246     0.04175
 Rotational constants (GHZ):           2.62337     1.30146     0.86990
 Zero-point vibrational energy      18677.6 (Joules/Mol)
                                    4.46406 (Kcal/Mol)
 Warning -- explicit consideration of   4 degrees of freedom as
           vibrations may cause significant error
 Vibrational temperatures:    270.05   340.38   546.84   619.73  1065.45
          (Kelvin)           1650.35

 Zero-point correction=                           0.007114 (Hartree/Particle)
 Thermal correction to Energy=                    0.011760
 Thermal correction to Enthalpy=                  0.012705
 Thermal correction to Gibbs Free Energy=        -0.023307
 Sum of electronic and zero-point Energies=          -5581.130473
 Sum of electronic and thermal Energies=             -5581.125827
 Sum of electronic and thermal Enthalpies=           -5581.124883
 Sum of electronic and thermal Free Energies=        -5581.160894

                     E (Thermal)             CV                S
                      KCal/Mol        Cal/Mol-Kelvin    Cal/Mol-Kelvin
 Total                    7.380             13.515             75.793
 Electronic               0.000              0.000              0.000
 Translational            0.889              2.981             41.811
 Rotational               0.889              2.981             27.695
 Vibrational              5.602              7.553              6.287
 Vibration     1          0.632              1.857              2.251
 Vibration     2          0.655              1.785              1.828
 Vibration     3          0.750              1.513              1.039
 Vibration     4          0.792              1.403              0.856

 Optimization completed.
    -- Stationary point found.
 Normal termination of Gaussian 09 at Sat Nov 20 02:46:29 2021.
