 Gaussian 09, Revision B.01,
 Gaussian 09:  EM64L-G09RevB.01 12-Aug-2010

 ----------------------------------------------------------------------
 #freq=noraman qcisd/aug-cc-pvtz density=current iop(7/33=1) nosym form
 check=forcecart
 ----------------------------------------------------------------------

 ----------------
 f2co-frequencies
 ----------------
 Symbolic Z-matrix:
 Charge =  0 Multiplicity = 1

                          Input orientation:
 ---------------------------------------------------------------------
 Center     Atomic      Atomic             Coordinates (Angstroms)
 Number     Number       Type             X           Y           Z
 ---------------------------------------------------------------------
      1          8           0        0.000000    0.000000    0.679927
      2          6           0        0.000000    0.000000   -0.492216
      3          9           0        0.000000   -1.058878   -1.264305
      4          9           0        0.000000    1.058878   -1.264305
 ---------------------------------------------------------------------

 SCF Done:  E(RHF) =  -311.741239712     A.U. after   11 cycles
 E2 =    -0.8959039191D+00 EUMP2 =    -0.31263714363158D+03
 SCF Done:  E(RHF) =  -311.741239597     A.U. after    6 cycles
 E2 =    -0.8959039754D+00 EUMP2 =    -0.31263714357256D+03
 SCF Done:  E(RHF) =  -311.741239597     A.U. after    6 cycles
 E2 =    -0.8959039677D+00 EUMP2 =    -0.31263714356481D+03
 SCF Done:  E(RHF) =  -311.741239463     A.U. after    5 cycles
 E2 =    -0.8959039927D+00 EUMP2 =    -0.31263714345560D+03
 SCF Done:  E(RHF) =  -311.741239463     A.U. after    6 cycles
 E2 =    -0.8959039875D+00 EUMP2 =    -0.31263714345043D+03
 SCF Done:  E(RHF) =  -311.741138303     A.U. after    7 cycles
 E2 =    -0.8960271486D+00 EUMP2 =    -0.31263716545177D+03
 SCF Done:  E(RHF) =  -311.741337507     A.U. after    8 cycles
 E2 =    -0.8957807038D+00 EUMP2 =    -0.31263711821086D+03
 SCF Done:  E(RHF) =  -311.741239160     A.U. after    6 cycles
 E2 =    -0.8959040676D+00 EUMP2 =    -0.31263714322721D+03
 SCF Done:  E(RHF) =  -311.741239160     A.U. after    7 cycles
 E2 =    -0.8959040767D+00 EUMP2 =    -0.31263714323626D+03
 SCF Done:  E(RHF) =  -311.741238606     A.U. after    7 cycles
 E2 =    -0.8959040330D+00 EUMP2 =    -0.31263714263850D+03
 E2 =    -0.8959040332D+00 EUMP2 =    -0.31263714263872D+03
 E2 =    -0.8958718472D+00 EUMP2 =    -0.31263713386958D+03
 E2 =    -0.8959359952D+00 EUMP2 =    -0.31263714905125D+03
 E2 =    -0.8959039548D+00 EUMP2 =    -0.31263714360159D+03
 E2 =    -0.8959039502D+00 EUMP2 =    -0.31263714359701D+03
 SCF Done:  E(RHF) =  -311.741287845     A.U. after    7 cycles
 E2 =    -0.8958467102D+00 EUMP2 =    -0.31263713455511D+03
 SCF Done:  E(RHF) =  -311.741190343     A.U. after    7 cycles
 E2 =    -0.8959611728D+00 EUMP2 =    -0.31263715151618D+03
 SCF Done:  E(RHF) =  -311.741276860     A.U. after    6 cycles
 E2 =    -0.8958583491D+00 EUMP2 =    -0.31263713520860D+03
 SCF Done:  E(RHF) =  -311.741201741     A.U. after    7 cycles
 E2 =    -0.8959495219D+00 EUMP2 =    -0.31263715126243D+03
 SCF Done:  E(RHF) =  -311.741239647     A.U. after    6 cycles
 E2 =    -0.8959039548D+00 EUMP2 =    -0.31263714360159D+03
 SCF Done:  E(RHF) =  -311.741239647     A.U. after    7 cycles
 E2 =    -0.8959039502D+00 EUMP2 =    -0.31263714359701D+03
 SCF Done:  E(RHF) =  -311.741190343     A.U. after    7 cycles
 E2 =    -0.8959611690D+00 EUMP2 =    -0.31263715151243D+03
 SCF Done:  E(RHF) =  -311.741287845     A.U. after    7 cycles
 E2 =    -0.8958467064D+00 EUMP2 =    -0.31263713455130D+03
 SCF Done:  E(RHF) =  -311.741276860     A.U. after    6 cycles
 E2 =    -0.8958583491D+00 EUMP2 =    -0.31263713520860D+03
 SCF Done:  E(RHF) =  -311.741201741     A.U. after    7 cycles
 E2 =    -0.8959495219D+00 EUMP2 =    -0.31263715126242D+03

 Alpha  occ. eigenvalues --  -26.39319 -26.39307 -20.62035 -11.53400  -1.76359
 Alpha  occ. eigenvalues --   -1.68655  -1.47843  -0.95847  -0.86605  -0.81822
 Alpha  occ. eigenvalues --   -0.80629  -0.72749  -0.70578  -0.70525  -0.57661
 Alpha  occ. eigenvalues --   -0.55841
 Alpha virt. eigenvalues --    0.05517   0.07196   0.07794   0.07908   0.15326
 Alpha virt. eigenvalues --    0.17098   0.17196   0.19383   0.19974   0.21584
 Alpha virt. eigenvalues --    0.24811   0.24865   0.26164   0.26400   0.28489

 Mulliken atomic charges:
              1
     1  O   -0.287283
     2  C    0.610334
     3  F   -0.161274
     4  F   -0.161777
 Sum of Mulliken atomic charges =   0.00000

 Dipole moment (field-independent basis, Debye):
    X=              0.0000    Y=             -0.0017    Z=             -1.0303  Tot=              1.0303
 Quadrupole moment (field-independent basis, Debye-Ang):
   XX=            -18.9056   YY=            -21.3188   ZZ=            -21.9211
   XY=              0.0000   XZ=              0.0000   YZ=              0.0021

                     1                      2                      3
                     A                      A                      A
 Frequencies --   589.5850               629.6748               794.2347
 Red. masses --    17.6608                16.9941                12.7423
 Frc consts  --     3.6170                 3.9699                 4.7358
 IR Inten    --     5.7821                 8.4403                37.7096

                     4                      5                      6
                     A                      A                      A
 Frequencies --   991.9678              1295.5132              1990.8569
 Red. masses --    17.2671                13.2208                13.1622
 Frc consts  --    10.0107                13.0735                30.7367
 IR Inten    --    58.8886               410.3827               465.1982

 - Thermochemistry -
 -------------------
 Temperature   298.150 Kelvin.  Pressure   1.00000 Atm.
 Atom     1 has atomic number  8 and mass  15.99491

 Molecular mass:    65.99172 amu.
 Principal axes and moments of inertia in atomic units:
                           1         2         3
     Eigenvalues --   152.13764 153.29673 305.43438
           X            0.00000   0.00000   1.00000
           Y            0.00000   1.00000   0.00000
           Z            1.00000   0.00000   0.00000
 This molecule is an asymmetric top.
 Rotational symmetry number  2.
 Rotational temperatures (Kelvin)      0.56931     0.56501     0.28358
 Rotational constants (GHZ):          11.86256    11.77286     5.90877
 Zero-point vibrational energy      37633.5 (Joules/Mol)
                                    8.99463 (Kcal/Mol)
 Warning -- explicit consideration of   1 degrees of freedom as
           vibrations may cause significant error
 Vibrational temperatures:    848.28   905.96  1142.73  1427.22  1863.95
          (Kelvin)           2864.40

 Zero-point correction=                           0.014334 (Hartree/Particle)
 Thermal correction to Energy=                    0.017607
 Thermal correction to Enthalpy=                  0.018551
 Thermal correction to Gibbs Free Energy=        -0.010807
 Sum of electronic and zero-point Energies=           -312.620960
 Sum of electronic and thermal Energies=              -312.617687
 Sum of electronic and thermal Enthalpies=            -312.616743
 Sum of electronic and thermal Free Energies=         -312.646101

                     E (Thermal)             CV                S
                      KCal/Mol        Cal/Mol-Kelvin    Cal/Mol-Kelvin
 Total                   11.048              9.194             61.790
 Electronic               0.000              0.000              0.000
 Translational            0.889              2.981             38.479
 Rotational               0.889              2.981             22.103
 Vibrational              9.271              3.233              1.207
 Vibration     1          0.947              1.054              0.468

 Optimization completed.
    -- Stationary point found.
 Normal termination of Gaussian 09 at Wed Nov 17 01:50:53 2021.
