 Gaussian 09, Revision B.01,
 Gaussian 09:  EM64L-G09RevB.01 12-Aug-2010

 -----------------------------------------------------
 # qcisd/aug-cc-pvtz nosymm density=current output=wfn
 -----------------------------------------------------

 -----------------
 h2cs-wavefunction
 -----------------
 Symbolic Z-matrix:
 Charge =  0 Multiplicity = 1

                          Input orientation:
 ---------------------------------------------------------------------
 Center     Atomic      Atomic             Coordinates (Angstroms)
 Number     Number       Type             X           Y           Z
 ---------------------------------------------------------------------
      1          6           0        0.000000    0.000000   -0.555291
      2         16           0        0.000000    0.000000    1.060374
      3          1           0        0.000000   -0.922280   -1.138992
      4          1           0        0.000000    0.922280   -1.128992
 ---------------------------------------------------------------------

 SCF Done:  E(RHF) =  -436.557495818     A.U. after   11 cycles
 E2 =    -0.3409347164D+00 EUMP2 =    -0.43689843053417D+03

 Mulliken atomic charges:
              1
     1  C   -0.821497
     2  S   -0.064907
     3  H    0.440190
     4  H    0.446213
 Sum of Mulliken atomic charges =   0.00000

 Dipole moment (field-independent basis, Debye):
    X=              0.0000    Y=              0.0027    Z=             -1.7498  Tot=              1.7498
 Quadrupole moment (field-independent basis, Debye-Ang):
   XX=            -19.9829   YY=            -20.5872   ZZ=            -18.9555
   XY=              0.0000   XZ=              0.0000   YZ=              0.0084

 Normal termination of Gaussian 09 at Wed Nov 17 17:57:05 2021.
