 Gaussian 09, Revision B.01,
 Gaussian 09:  EM64L-G09RevB.01 12-Aug-2010

 -----------------------------------------------------
 # qcisd/aug-cc-pvtz nosymm density=current output=wfn
 -----------------------------------------------------

 -----------------
 h2cs-wavefunction
 -----------------
 Symbolic Z-matrix:
 Charge =  0 Multiplicity = 1

                          Input orientation:
 ---------------------------------------------------------------------
 Center     Atomic      Atomic             Coordinates (Angstroms)
 Number     Number       Type             X           Y           Z
 ---------------------------------------------------------------------
      1          6           0        0.000000    0.000000   -0.545291
      2         16           0        0.000000    0.000000    1.060374
      3          1           0        0.000000   -0.922280   -1.128992
      4          1           0        0.000000    0.922280   -1.128992
 ---------------------------------------------------------------------

 SCF Done:  E(RHF) =  -436.557710315     A.U. after   11 cycles
 E2 =    -0.3406441329D+00 EUMP2 =    -0.43689835444741D+03

 Mulliken atomic charges:
              1
     1  C   -0.817629
     2  S   -0.064529
     3  H    0.441079
     4  H    0.441079
 Sum of Mulliken atomic charges =   0.00000

 Dipole moment (field-independent basis, Debye):
    X=              0.0000    Y=              0.0000    Z=             -1.7299  Tot=              1.7299
 Quadrupole moment (field-independent basis, Debye-Ang):
   XX=            -19.9537   YY=            -20.5818   ZZ=            -18.9826
   XY=              0.0000   XZ=              0.0000   YZ=              0.0000

 Normal termination of Gaussian 09 at Wed Nov 17 16:58:56 2021.
