 Gaussian 09, Revision B.01,
 Gaussian 09:  EM64L-G09RevB.01 12-Aug-2010

 -----------------------------------------------------
 # qcisd/aug-cc-pvtz nosymm density=current output=wfn
 -----------------------------------------------------

 -----------------
 h2cs-wavefunction
 -----------------
 Symbolic Z-matrix:
 Charge =  0 Multiplicity = 1

                          Input orientation:
 ---------------------------------------------------------------------
 Center     Atomic      Atomic             Coordinates (Angstroms)
 Number     Number       Type             X           Y           Z
 ---------------------------------------------------------------------
      1          6           0        0.000000    0.000000   -0.555291
      2         16           0        0.000000    0.000000    1.060374
      3          1           0        0.000000   -0.922280   -1.128992
      4          1           0        0.000000    0.912280   -1.128992
 ---------------------------------------------------------------------

 SCF Done:  E(RHF) =  -436.557647869     A.U. after   11 cycles
 E2 =    -0.3407539821D+00 EUMP2 =    -0.43689840185085D+03

 Mulliken atomic charges:
              1
     1  C   -0.832359
     2  S   -0.066657
     3  H    0.444270
     4  H    0.454745
 Sum of Mulliken atomic charges =   0.00000

 Dipole moment (field-independent basis, Debye):
    X=              0.0000    Y=              0.0000    Z=             -1.7560  Tot=              1.7560
 Quadrupole moment (field-independent basis, Debye-Ang):
   XX=            -19.9679   YY=            -20.5866   ZZ=            -18.9544
   XY=              0.0000   XZ=              0.0000   YZ=             -0.0060

 Normal termination of Gaussian 09 at Wed Nov 17 18:16:42 2021.
