 Gaussian 09, Revision B.01,
 Gaussian 09:  EM64L-G09RevB.01 12-Aug-2010

 -----------------------------------------------------
 # qcisd/aug-cc-pvtz nosymm density=current output=wfn
 -----------------------------------------------------

 -----------------
 h2cs-wavefunction
 -----------------
 Symbolic Z-matrix:
 Charge =  0 Multiplicity = 1

                          Input orientation:
 ---------------------------------------------------------------------
 Center     Atomic      Atomic             Coordinates (Angstroms)
 Number     Number       Type             X           Y           Z
 ---------------------------------------------------------------------
      1          6           0        0.000000    0.010000   -0.555291
      2         16           0        0.000000    0.000000    1.060374
      3          1           0        0.000000   -0.922280   -1.128992
      4          1           0        0.000000    0.922280   -1.128992
 ---------------------------------------------------------------------

 SCF Done:  E(RHF) =  -436.557480619     A.U. after   11 cycles
 E2 =    -0.3408745837D+00 EUMP2 =    -0.43689835520244D+03

 Mulliken atomic charges:
              1
     1  C   -0.825930
     2  S   -0.065475
     3  H    0.434790
     4  H    0.456615
 Sum of Mulliken atomic charges =   0.00000

 Dipole moment (field-independent basis, Debye):
    X=              0.0000    Y=              0.0079    Z=             -1.7521  Tot=              1.7521
 Quadrupole moment (field-independent basis, Debye-Ang):
   XX=            -19.9780   YY=            -20.5751   ZZ=            -18.9728
   XY=              0.0000   XZ=              0.0000   YZ=             -0.0478

 Normal termination of Gaussian 09 at Wed Nov 17 16:49:46 2021.
