 Gaussian 09, Revision B.01,
 Gaussian 09:  EM64L-G09RevB.01 12-Aug-2010

 --------------------------------------------
 #opt qcisd/aug-cc-pvtz density=current nosym
 --------------------------------------------

 ----
 h2co
 ----
 Symbolic Z-matrix:
 Charge =  0 Multiplicity = 1

 SCF Done:  E(RHF) =  -113.905082055     A.U. after   11 cycles
 E2 =    -0.4078310603D+00 EUMP2 =    -0.11431291311511D+03
 SCF Done:  E(RHF) =  -113.912847247     A.U. after   10 cycles
 E2 =    -0.4033726634D+00 EUMP2 =    -0.11431621991025D+03
 SCF Done:  E(RHF) =  -113.913921713     A.U. after    9 cycles
 E2 =    -0.4024005573D+00 EUMP2 =    -0.11431632227030D+03
 SCF Done:  E(RHF) =  -113.913826364     A.U. after    8 cycles
 E2 =    -0.4025182142D+00 EUMP2 =    -0.11431634457777D+03
 Optimization completed.
    -- Stationary point found.

                          Input orientation:
 ---------------------------------------------------------------------
 Center     Atomic      Atomic             Coordinates (Angstroms)
 Number     Number       Type             X           Y           Z
 ---------------------------------------------------------------------
      1          8           0        0.000000    0.000000    0.679252
      2          6           0        0.000000    0.000000   -0.526911
      3          1           0        0.000000    0.936614   -1.106620
      4          1           0        0.000000   -0.936614   -1.106620
 ---------------------------------------------------------------------

 Alpha  occ. eigenvalues --  -20.57889 -11.34241  -1.40667  -0.87136  -0.69535
 Alpha  occ. eigenvalues --   -0.65246  -0.53718  -0.44380
 Alpha virt. eigenvalues --    0.02626   0.04168   0.06240   0.07646   0.12928
 Alpha virt. eigenvalues --    0.13296   0.13346   0.17433   0.19819   0.21172
 Alpha virt. eigenvalues --    0.21714   0.25409   0.25610   0.28124   0.32051

 Mulliken atomic charges:
              1
     1  O   -0.417406
     2  C   -0.484245
     3  H    0.450826
     4  H    0.450826
 Sum of Mulliken atomic charges =   0.00000

 Dipole moment (field-independent basis, Debye):
    X=              0.0000    Y=              0.0000    Z=             -2.4421  Tot=              2.4421
 Quadrupole moment (field-independent basis, Debye-Ang):
   XX=            -11.7378   YY=            -11.6215   ZZ=            -12.2708
   XY=              0.0000   XZ=              0.0000   YZ=              0.0000

 Normal termination of Gaussian 09 at Tue Nov 16 16:35:48 2021.
