 Gaussian 09, Revision B.01,
 Gaussian 09:  EM64L-G09RevB.01 12-Aug-2010

 ----------------------------------------------------------------------
 #freq=noraman qcisd/aug-cc-pvtz density=current iop(7/33=1) nosym form
 check=forcecart
 ----------------------------------------------------------------------

 ----------------
 h2co-frequencies
 ----------------
 Symbolic Z-matrix:
 Charge =  0 Multiplicity = 1

                          Input orientation:
 ---------------------------------------------------------------------
 Center     Atomic      Atomic             Coordinates (Angstroms)
 Number     Number       Type             X           Y           Z
 ---------------------------------------------------------------------
      1          8           0        0.000000    0.000000    0.679252
      2          6           0        0.000000    0.000000   -0.526911
      3          1           0        0.000000    0.936614   -1.106620
      4          1           0        0.000000   -0.936614   -1.106620
 ---------------------------------------------------------------------

 SCF Done:  E(RHF) =  -113.913826411     A.U. after   11 cycles
 E2 =    -0.4025181565D+00 EUMP2 =    -0.11431634456741D+03
 SCF Done:  E(RHF) =  -113.913826333     A.U. after    6 cycles
 E2 =    -0.4025182026D+00 EUMP2 =    -0.11431634453530D+03
 SCF Done:  E(RHF) =  -113.913826333     A.U. after    7 cycles
 E2 =    -0.4025182121D+00 EUMP2 =    -0.11431634454484D+03
 SCF Done:  E(RHF) =  -113.913826230     A.U. after    5 cycles
 E2 =    -0.4025182258D+00 EUMP2 =    -0.11431634445575D+03
 SCF Done:  E(RHF) =  -113.913826230     A.U. after    6 cycles
 E2 =    -0.4025182142D+00 EUMP2 =    -0.11431634444420D+03
 SCF Done:  E(RHF) =  -113.913727671     A.U. after    7 cycles
 E2 =    -0.4026348659D+00 EUMP2 =    -0.11431636253666D+03
 SCF Done:  E(RHF) =  -113.913921998     A.U. after    7 cycles
 E2 =    -0.4024015662D+00 EUMP2 =    -0.11431632356407D+03
 SCF Done:  E(RHF) =  -113.913825996     A.U. after    7 cycles
 E2 =    -0.4025182763D+00 EUMP2 =    -0.11431634427245D+03
 SCF Done:  E(RHF) =  -113.913825996     A.U. after    7 cycles
 E2 =    -0.4025182760D+00 EUMP2 =    -0.11431634427214D+03
 SCF Done:  E(RHF) =  -113.913825241     A.U. after    6 cycles
 E2 =    -0.4025182498D+00 EUMP2 =    -0.11431634349122D+03
 E2 =    -0.4025182426D+00 EUMP2 =    -0.11431634348398D+03
 E2 =    -0.4024192227D+00 EUMP2 =    -0.11431632334881D+03
 E2 =    -0.4026172629D+00 EUMP2 =    -0.11431636232637D+03
 E2 =    -0.4025181632D+00 EUMP2 =    -0.11431634452620D+03
 E2 =    -0.4025181698D+00 EUMP2 =    -0.11431634453276D+03
 SCF Done:  E(RHF) =  -113.913814112     A.U. after    7 cycles
 E2 =    -0.4025292043D+00 EUMP2 =    -0.11431634331667D+03
 SCF Done:  E(RHF) =  -113.913837773     A.U. after    7 cycles
 E2 =    -0.4025071478D+00 EUMP2 =    -0.11431634492029D+03
 SCF Done:  E(RHF) =  -113.913834971     A.U. after    7 cycles
 E2 =    -0.4025093597D+00 EUMP2 =    -0.11431634433091D+03
 SCF Done:  E(RHF) =  -113.913817339     A.U. after    7 cycles
 E2 =    -0.4025269926D+00 EUMP2 =    -0.11431634433125D+03
 SCF Done:  E(RHF) =  -113.913826363     A.U. after    7 cycles
 E2 =    -0.4025181632D+00 EUMP2 =    -0.11431634452620D+03
 SCF Done:  E(RHF) =  -113.913826363     A.U. after    8 cycles
 E2 =    -0.4025181698D+00 EUMP2 =    -0.11431634453276D+03
 SCF Done:  E(RHF) =  -113.913837773     A.U. after    7 cycles
 E2 =    -0.4025071481D+00 EUMP2 =    -0.11431634492056D+03
 SCF Done:  E(RHF) =  -113.913814112     A.U. after    7 cycles
 E2 =    -0.4025292046D+00 EUMP2 =    -0.11431634331694D+03
 SCF Done:  E(RHF) =  -113.913834971     A.U. after    7 cycles
 E2 =    -0.4025093597D+00 EUMP2 =    -0.11431634433091D+03
 SCF Done:  E(RHF) =  -113.913817339     A.U. after    7 cycles
 E2 =    -0.4025269926D+00 EUMP2 =    -0.11431634433125D+03

 Alpha  occ. eigenvalues --  -20.57893 -11.34249  -1.40668  -0.87132  -0.69523
 Alpha  occ. eigenvalues --   -0.65249  -0.53721  -0.44378
 Alpha virt. eigenvalues --    0.02626   0.04169   0.06239   0.07646   0.12928
 Alpha virt. eigenvalues --    0.13295   0.13345   0.17433   0.19821   0.21171
 Alpha virt. eigenvalues --    0.21714   0.25410   0.25610   0.28119   0.32048

 Mulliken atomic charges:
              1
     1  O   -0.417274
     2  C   -0.483758
     3  H    0.450759
     4  H    0.450274
 Sum of Mulliken atomic charges =   0.00000

 Dipole moment (field-independent basis, Debye):
    X=              0.0000    Y=              0.0004    Z=             -2.4419  Tot=              2.4419
 Quadrupole moment (field-independent basis, Debye-Ang):
   XX=            -11.7383   YY=            -11.6230   ZZ=            -12.2699
   XY=              0.0000   XZ=              0.0000   YZ=              0.0004

                     1                      2                      3
                     A                      A                      A
 Frequencies --  1203.8177              1275.3651              1544.5733
 Red. masses --     1.3636                 1.3377                 1.1255
 Frc consts  --     1.1643                 1.2820                 1.5820
 IR Inten    --     6.1774                11.4359                12.4502

                     4                      5                      6
                     A                      A                      A
 Frequencies --  1803.0246              2954.2668              3020.9223
 Red. masses --     6.5954                 1.0450                 1.1214
 Frc consts  --    12.6326                 5.3737                 6.0295
 IR Inten    --    87.4512                61.6355                90.4904

 - Thermochemistry -
 -------------------
 Temperature   298.150 Kelvin.  Pressure   1.00000 Atm.
 Atom     1 has atomic number  8 and mass  15.99491

 Molecular mass:    30.01056 amu.
 Principal axes and moments of inertia in atomic units:
                           1         2         3
     Eigenvalues --     6.31443  46.43032  52.74475
           X            0.00000   0.00000   1.00000
           Y            0.00000   1.00000   0.00000
           Z            1.00000   0.00000   0.00000
 This molecule is an asymmetric top.
 Rotational symmetry number  2.
 Rotational temperatures (Kelvin)     13.71681     1.86546     1.64213
 Rotational constants (GHZ):         285.81220    38.86988    34.21651
 Zero-point vibrational energy      70591.5 (Joules/Mol)
                                   16.87176 (Kcal/Mol)
 Vibrational temperatures:   1732.02  1834.96  2222.29  2594.15  4250.53
          (Kelvin)           4346.43

 Zero-point correction=                           0.026887 (Hartree/Particle)
 Thermal correction to Energy=                    0.029754
 Thermal correction to Enthalpy=                  0.030698
 Thermal correction to Gibbs Free Energy=         0.005885
 Sum of electronic and zero-point Energies=           -114.300094
 Sum of electronic and thermal Energies=              -114.297227
 Sum of electronic and thermal Enthalpies=            -114.296283
 Sum of electronic and thermal Free Energies=         -114.321096

                     E (Thermal)             CV                S
                      KCal/Mol        Cal/Mol-Kelvin    Cal/Mol-Kelvin
 Total                   18.671              6.414             52.224
 Electronic               0.000              0.000              0.000
 Translational            0.889              2.981             36.130
 Rotational               0.889              2.981             16.010
 Vibrational             16.893              0.452              0.084

 Optimization completed.
    -- Stationary point found.
 Normal termination of Gaussian 09 at Tue Nov 16 17:57:15 2021.
