 Gaussian 16, Revision C.01,
 Gaussian 16:  EM64L-G16RevC.01  3-Jul-2019

 ----------------------------------------------------------------------
 # qcisd/aug-cc-pvtz nosymm density=current pop=(chelpg,hirshfeld,npa,d
 ipole)
 ----------------------------------------------------------------------

 -----------------
 f2co-wavefunction
 -----------------
 Symbolic Z-matrix:
 Charge =  0 Multiplicity = 1

                          Input orientation:
 ---------------------------------------------------------------------
 Center     Atomic      Atomic             Coordinates (Angstroms)
 Number     Number       Type             X           Y           Z
 ---------------------------------------------------------------------
      1          8           0        0.000000    0.000000    0.669927
      2          6           0        0.000000    0.000000   -0.492216
      3          9           0        0.000000   -1.058878   -1.264305
      4          9           0        0.000000    1.058878   -1.264305
 ---------------------------------------------------------------------

 SCF Done:  E(RHF) =  -311.742050738     A.U. after   11 cycles
 E2 =    -0.8946718668D+00 EUMP2 =    -0.31263672260486D+03

 Alpha  occ. eigenvalues --  -26.39149 -26.39146 -20.61991 -11.53109  -1.76276
 Alpha  occ. eigenvalues --   -1.68543  -1.48537  -0.95700  -0.86631  -0.81810
 Alpha  occ. eigenvalues --   -0.80552  -0.72639  -0.70709  -0.70453  -0.58005
 Alpha  occ. eigenvalues --   -0.56002
 Alpha virt. eigenvalues --    0.05535   0.07190   0.07797   0.07900   0.15626
 Alpha virt. eigenvalues --    0.17083   0.17186   0.19451   0.19998   0.21608
 Alpha virt. eigenvalues --    0.24845   0.24848   0.26163   0.26427   0.28513

 Mulliken charges:
               1
     1  O   -0.283405
     2  C    0.610011
     3  F   -0.163303
     4  F   -0.163303
 Sum of Mulliken charges =  -0.00000

 Dipole moment (field-independent basis, Debye):
    X=             -0.0000    Y=             -0.0000    Z=             -0.9860  Tot=              0.9860
 Quadrupole moment (field-independent basis, Debye-Ang):
   XX=            -18.8752   YY=            -21.3179   ZZ=            -21.9223
   XY=              0.0000   XZ=              0.0000   YZ=             -0.0000

 ESP charges:
               1
     1  O   -0.467748
     2  C    0.905931
     3  F   -0.219091
     4  F   -0.219091
 Sum of ESP charges =   0.00000

 Summary of Natural Population Analysis:

                                       Natural Population
                Natural  -----------------------------------------------
    Atom  No    Charge         Core      Valence    Rydberg      Total
 -----------------------------------------------------------------------
      O    1   -0.51303      1.99947     6.41697    0.09659     8.51303
      C    2    1.13514      1.99928     2.77759    0.08799     4.86486
      F    3   -0.31106      1.99980     7.22971    0.08155     9.31106
      F    4   -0.31106      1.99980     7.22971    0.08155     9.31106
 =======================================================================
   * Total *    0.00000      7.99836    23.65397    0.34767    32.00000

 Normal termination of Gaussian 16 at Sat Sep  3 01:24:43 2022.
