 Gaussian 16, Revision C.01,
 Gaussian 16:  EM64L-G16RevC.01  3-Jul-2019

 ----------------------------------------------------------------------
 # qcisd/aug-cc-pvtz nosymm density=current pop=(chelpg,hirshfeld,npa,d
 ipole)
 ----------------------------------------------------------------------

 -----------------
 f2co-wavefunction
 -----------------
 Symbolic Z-matrix:
 Charge =  0 Multiplicity = 1

                          Input orientation:
 ---------------------------------------------------------------------
 Center     Atomic      Atomic             Coordinates (Angstroms)
 Number     Number       Type             X           Y           Z
 ---------------------------------------------------------------------
      1          8           0        0.000000    0.000000    0.679927
      2          6           0        0.000000    0.010000   -0.492216
      3          9           0        0.000000   -1.058878   -1.264305
      4          9           0        0.000000    1.058878   -1.264305
 ---------------------------------------------------------------------

 SCF Done:  E(RHF) =  -311.741129011     A.U. after   12 cycles
 E2 =    -0.8959148998D+00 EUMP2 =    -0.31263704391090D+03

 Alpha  occ. eigenvalues --  -26.39694 -26.38943 -20.62021 -11.53394  -1.76434
 Alpha  occ. eigenvalues --   -1.68624  -1.47830  -0.95880  -0.86620  -0.81860
 Alpha  occ. eigenvalues --   -0.80638  -0.72736  -0.70578  -0.70509  -0.57649
 Alpha  occ. eigenvalues --   -0.55828
 Alpha virt. eigenvalues --    0.05515   0.07195   0.07795   0.07908   0.15335
 Alpha virt. eigenvalues --    0.17094   0.17200   0.19383   0.19973   0.21583
 Alpha virt. eigenvalues --    0.24809   0.24871   0.26163   0.26397   0.28490

 Mulliken charges:
               1
     1  O   -0.287614
     2  C    0.610096
     3  F   -0.169917
     4  F   -0.152565
 Sum of Mulliken charges =  -0.00000

 Dipole moment (field-independent basis, Debye):
    X=             -0.0000    Y=              0.0971    Z=             -1.0333  Tot=              1.0378
 Quadrupole moment (field-independent basis, Debye-Ang):
   XX=            -18.9051   YY=            -21.3165   ZZ=            -21.9186
   XY=             -0.0000   XZ=             -0.0000   YZ=             -0.1114

 ESP charges:
               1
     1  O   -0.466828
     2  C    0.896911
     3  F   -0.220352
     4  F   -0.209732
 Sum of ESP charges =   0.00000

 Summary of Natural Population Analysis:

                                       Natural Population
                Natural  -----------------------------------------------
    Atom  No    Charge         Core      Valence    Rydberg      Total
 -----------------------------------------------------------------------
      O    1   -0.51571      1.99949     6.42016    0.09606     8.51571
      C    2    1.13536      1.99932     2.77745    0.08787     4.86464
      F    3   -0.31511      1.99981     7.23376    0.08154     9.31511
      F    4   -0.30454      1.99980     7.22320    0.08154     9.30454
 =======================================================================
   * Total *    0.00000      7.99841    23.65457    0.34702    32.00000

 Normal termination of Gaussian 16 at Sat Sep  3 02:33:17 2022.
