 Gaussian 16, Revision C.01,
 Gaussian 16:  EM64L-G16RevC.01  3-Jul-2019

 ----------------------------------------------------------------------
 # qcisd/aug-cc-pvtz nosymm density=current pop=(chelpg,hirshfeld,npa,d
 ipole)
 ----------------------------------------------------------------------

 -----------------
 f2co-wavefunction
 -----------------
 Symbolic Z-matrix:
 Charge =  0 Multiplicity = 1

                          Input orientation:
 ---------------------------------------------------------------------
 Center     Atomic      Atomic             Coordinates (Angstroms)
 Number     Number       Type             X           Y           Z
 ---------------------------------------------------------------------
      1          8           0        0.000000   -0.010000    0.679927
      2          6           0        0.000000    0.000000   -0.492216
      3          9           0        0.000000   -1.058878   -1.264305
      4          9           0        0.000000    1.058878   -1.264305
 ---------------------------------------------------------------------

 SCF Done:  E(RHF) =  -311.741214761     A.U. after   11 cycles
 E2 =    -0.8959107234D+00 EUMP2 =    -0.31263712548452D+03

 Alpha  occ. eigenvalues --  -26.39405 -26.39233 -20.62020 -11.53393  -1.76378
 Alpha  occ. eigenvalues --   -1.68672  -1.47829  -0.95858  -0.86620  -0.81835
 Alpha  occ. eigenvalues --   -0.80635  -0.72758  -0.70591  -0.70515  -0.57649
 Alpha  occ. eigenvalues --   -0.55830
 Alpha virt. eigenvalues --    0.05517   0.07195   0.07794   0.07908   0.15333
 Alpha virt. eigenvalues --    0.17098   0.17197   0.19386   0.19972   0.21581
 Alpha virt. eigenvalues --    0.24816   0.24867   0.26163   0.26399   0.28488

 Mulliken charges:
               1
     1  O   -0.287558
     2  C    0.610172
     3  F   -0.162010
     4  F   -0.160605
 Sum of Mulliken charges =  -0.00000

 Dipole moment (field-independent basis, Debye):
    X=              0.0000    Y=              0.0251    Z=             -1.0335  Tot=              1.0338
 Quadrupole moment (field-independent basis, Debye-Ang):
   XX=            -18.9051   YY=            -21.3170   ZZ=            -21.9185
   XY=              0.0000   XZ=             -0.0000   YZ=             -0.0111

 ESP charges:
               1
     1  O   -0.466836
     2  C    0.896889
     3  F   -0.215294
     4  F   -0.214759
 Sum of ESP charges =  -0.00000

 Summary of Natural Population Analysis:

                                       Natural Population
                Natural  -----------------------------------------------
    Atom  No    Charge         Core      Valence    Rydberg      Total
 -----------------------------------------------------------------------
      O    1   -0.51572      1.99949     6.42018    0.09606     8.51572
      C    2    1.13532      1.99932     2.77749    0.08786     4.86468
      F    3   -0.31062      1.99980     7.22923    0.08158     9.31062
      F    4   -0.30898      1.99980     7.22769    0.08149     9.30898
 =======================================================================
   * Total *    0.00000      7.99841    23.65459    0.34700    32.00000

 Normal termination of Gaussian 16 at Sat Sep  3 00:39:28 2022.
