 Gaussian 16, Revision C.01,
 Gaussian 16:  EM64L-G16RevC.01  3-Jul-2019

 ----------------------------------------------------------------------
 # qcisd/aug-cc-pvtz nosymm density=current pop=(chelpg,hirshfeld,npa,d
 ipole)
 ----------------------------------------------------------------------

 -----------------
 f2co-wavefunction
 -----------------
 Symbolic Z-matrix:
 Charge =  0 Multiplicity = 1

                          Input orientation:
 ---------------------------------------------------------------------
 Center     Atomic      Atomic             Coordinates (Angstroms)
 Number     Number       Type             X           Y           Z
 ---------------------------------------------------------------------
      1          8           0        0.000000    0.000000    0.679927
      2          6           0        0.000000    0.000000   -0.502216
      3          9           0        0.000000   -1.058878   -1.264305
      4          9           0        0.000000    1.058878   -1.264305
 ---------------------------------------------------------------------

 SCF Done:  E(RHF) =  -311.740780828     A.U. after   11 cycles
 E2 =    -0.8962245211D+00 EUMP2 =    -0.31263700534869D+03

 Alpha  occ. eigenvalues --  -26.39591 -26.39588 -20.61764 -11.53512  -1.76841
 Alpha  occ. eigenvalues --   -1.69147  -1.46940  -0.96201  -0.86942  -0.82114
 Alpha  occ. eigenvalues --   -0.80830  -0.73050  -0.70951  -0.70162  -0.57093
 Alpha  occ. eigenvalues --   -0.55471
 Alpha virt. eigenvalues --    0.05496   0.07192   0.07785   0.07920   0.15204
 Alpha virt. eigenvalues --    0.17129   0.17220   0.19412   0.19913   0.21489
 Alpha virt. eigenvalues --    0.24884   0.24930   0.26142   0.26375   0.28441

 Mulliken charges:
               1
     1  O   -0.296247
     2  C    0.606740
     3  F   -0.155247
     4  F   -0.155247
 Sum of Mulliken charges =  -0.00000

 Dipole moment (field-independent basis, Debye):
    X=             -0.0000    Y=              0.0000    Z=             -1.1414  Tot=              1.1414
 Quadrupole moment (field-independent basis, Debye-Ang):
   XX=            -18.9213   YY=            -21.2802   ZZ=            -21.8406
   XY=              0.0000   XZ=              0.0000   YZ=             -0.0000

 ESP charges:
               1
     1  O   -0.472504
     2  C    0.893640
     3  F   -0.210568
     4  F   -0.210568
 Sum of ESP charges =   0.00000

 Summary of Natural Population Analysis:

                                       Natural Population
                Natural  -----------------------------------------------
    Atom  No    Charge         Core      Valence    Rydberg      Total
 -----------------------------------------------------------------------
      O    1   -0.52165      1.99950     6.42654    0.09561     8.52165
      C    2    1.13389      1.99936     2.77864    0.08811     4.86611
      F    3   -0.30612      1.99980     7.22478    0.08155     9.30612
      F    4   -0.30612      1.99980     7.22478    0.08155     9.30612
 =======================================================================
   * Total *    0.00000      7.99846    23.65473    0.34681    32.00000

 Normal termination of Gaussian 16 at Sat Sep  3 03:45:42 2022.
