 Gaussian 16, Revision C.01,
 Gaussian 16:  EM64L-G16RevC.01  3-Jul-2019

 ----------------------------------------------------------------------
 # qcisd/aug-cc-pvtz nosymm density=current pop=(chelpg,hirshfeld,npa,d
 ipole)
 ----------------------------------------------------------------------

 -----------------
 f2co-wavefunction
 -----------------
 Symbolic Z-matrix:
 Charge =  0 Multiplicity = 1

                          Input orientation:
 ---------------------------------------------------------------------
 Center     Atomic      Atomic             Coordinates (Angstroms)
 Number     Number       Type             X           Y           Z
 ---------------------------------------------------------------------
      1          8           0        0.000000    0.000000    0.689927
      2          6           0        0.000000    0.000000   -0.492216
      3          9           0        0.000000   -1.058878   -1.264305
      4          9           0        0.000000    1.058878   -1.264305
 ---------------------------------------------------------------------

 SCF Done:  E(RHF) =  -311.740067108     A.U. after   11 cycles
 E2 =    -0.8971365688D+00 EUMP2 =    -0.31263720367691D+03

 Alpha  occ. eigenvalues --  -26.39489 -26.39486 -20.62048 -11.53670  -1.76480
 Alpha  occ. eigenvalues --   -1.68800  -1.47135  -0.96012  -0.86616  -0.81864
 Alpha  occ. eigenvalues --   -0.80720  -0.72876  -0.70724  -0.70320  -0.57300
 Alpha  occ. eigenvalues --   -0.55661
 Alpha virt. eigenvalues --    0.05498   0.07200   0.07791   0.07917   0.15032
 Alpha virt. eigenvalues --    0.17113   0.17207   0.19339   0.19946   0.21553
 Alpha virt. eigenvalues --    0.24782   0.24889   0.26163   0.26372   0.28462

 Mulliken charges:
               1
     1  O   -0.291409
     2  C    0.610234
     3  F   -0.159412
     4  F   -0.159412
 Sum of Mulliken charges =  -0.00000

 Dipole moment (field-independent basis, Debye):
    X=             -0.0000    Y=             -0.0000    Z=             -1.0801  Tot=              1.0801
 Quadrupole moment (field-independent basis, Debye-Ang):
   XX=            -18.9344   YY=            -21.3163   ZZ=            -21.9150
   XY=             -0.0000   XZ=              0.0000   YZ=              0.0000

 ESP charges:
               1
     1  O   -0.465955
     2  C    0.888132
     3  F   -0.211089
     4  F   -0.211089
 Sum of ESP charges =   0.00000

 Summary of Natural Population Analysis:

                                       Natural Population
                Natural  -----------------------------------------------
    Atom  No    Charge         Core      Valence    Rydberg      Total
 -----------------------------------------------------------------------
      O    1   -0.51834      1.99950     6.42330    0.09554     8.51834
      C    2    1.13554      1.99936     2.77736    0.08774     4.86446
      F    3   -0.30860      1.99980     7.22727    0.08153     9.30860
      F    4   -0.30860      1.99980     7.22727    0.08153     9.30860
 =======================================================================
   * Total *   -0.00000      7.99846    23.65520    0.34634    32.00000

 Normal termination of Gaussian 16 at Sat Sep  3 01:01:43 2022.
