 Gaussian 16, Revision C.01,
 Gaussian 16:  EM64L-G16RevC.01  3-Jul-2019

 ----------------------------------------------------------------------
 # qcisd/aug-cc-pvtz nosymm density=current pop=(chelpg,hirshfeld,npa,d
 ipole)
 ----------------------------------------------------------------------

 -----------------
 f2co-wavefunction
 -----------------
 Symbolic Z-matrix:
 Charge =  0 Multiplicity = 1

                          Input orientation:
 ---------------------------------------------------------------------
 Center     Atomic      Atomic             Coordinates (Angstroms)
 Number     Number       Type             X           Y           Z
 ---------------------------------------------------------------------
      1          8           0        0.000000    0.000000    0.679927
      2          6           0        0.000000    0.000000   -0.492216
      3          9           0        0.000000   -1.058878   -1.274305
      4          9           0        0.000000    1.058878   -1.264305
 ---------------------------------------------------------------------

 SCF Done:  E(RHF) =  -311.740823219     A.U. after   12 cycles
 E2 =    -0.8963624761D+00 EUMP2 =    -0.31263718569513D+03

 Alpha  occ. eigenvalues --  -26.39326 -26.39209 -20.62162 -11.53471  -1.76202
 Alpha  occ. eigenvalues --   -1.68496  -1.47931  -0.95764  -0.86460  -0.81712
 Alpha  occ. eigenvalues --   -0.80583  -0.72669  -0.70591  -0.70476  -0.57754
 Alpha  occ. eigenvalues --   -0.55925
 Alpha virt. eigenvalues --    0.05517   0.07199   0.07797   0.07907   0.15251
 Alpha virt. eigenvalues --    0.17090   0.17190   0.19349   0.19988   0.21612
 Alpha virt. eigenvalues --    0.24763   0.24846   0.26174   0.26398   0.28497

 Mulliken charges:
               1
     1  O   -0.285171
     2  C    0.611819
     3  F   -0.165836
     4  F   -0.160812
 Sum of Mulliken charges =  -0.00000

 Dipole moment (field-independent basis, Debye):
    X=             -0.0000    Y=              0.0172    Z=             -1.0027  Tot=              1.0029
 Quadrupole moment (field-independent basis, Debye-Ang):
   XX=            -18.9116   YY=            -21.3350   ZZ=            -21.9452
   XY=             -0.0000   XZ=              0.0000   YZ=             -0.0217

 ESP charges:
               1
     1  O   -0.463540
     2  C    0.894070
     3  F   -0.216959
     4  F   -0.213570
 Sum of ESP charges =   0.00000

 Summary of Natural Population Analysis:

                                       Natural Population
                Natural  -----------------------------------------------
    Atom  No    Charge         Core      Valence    Rydberg      Total
 -----------------------------------------------------------------------
      O    1   -0.51411      1.99949     6.41859    0.09603     8.51411
      C    2    1.13618      1.99932     2.77682    0.08768     4.86382
      F    3   -0.31221      1.99981     7.23092    0.08149     9.31221
      F    4   -0.30986      1.99980     7.22848    0.08157     9.30986
 =======================================================================
   * Total *   -0.00000      7.99841    23.65481    0.34678    32.00000

 Normal termination of Gaussian 16 at Sat Sep  3 06:06:43 2022.
