 Gaussian 16, Revision C.01,
 Gaussian 16:  EM64L-G16RevC.01  3-Jul-2019

 ----------------------------------------------------------------------
 # qcisd/aug-cc-pvtz nosymm density=current pop=(chelpg,hirshfeld,npa,d
 ipole)
 ----------------------------------------------------------------------

 -----------------
 f2co-wavefunction
 -----------------
 Symbolic Z-matrix:
 Charge =  0 Multiplicity = 1

                          Input orientation:
 ---------------------------------------------------------------------
 Center     Atomic      Atomic             Coordinates (Angstroms)
 Number     Number       Type             X           Y           Z
 ---------------------------------------------------------------------
      1          8           0        0.000000    0.000000    0.679927
      2          6           0       -0.010000    0.000000   -0.492216
      3          9           0        0.000000   -1.058878   -1.264305
      4          9           0        0.000000    1.058878   -1.264305
 ---------------------------------------------------------------------

 SCF Done:  E(RHF) =  -311.741184426     A.U. after   11 cycles
 E2 =    -0.8959197723D+00 EUMP2 =    -0.31263710419795D+03

 Alpha  occ. eigenvalues --  -26.39319 -26.39316 -20.62022 -11.53393  -1.76375
 Alpha  occ. eigenvalues --   -1.68670  -1.47830  -0.95855  -0.86618  -0.81833
 Alpha  occ. eigenvalues --   -0.80634  -0.72757  -0.70588  -0.70516  -0.57649
 Alpha  occ. eigenvalues --   -0.55832
 Alpha virt. eigenvalues --    0.05514   0.07196   0.07794   0.07908   0.15312
 Alpha virt. eigenvalues --    0.17103   0.17197   0.19363   0.20002   0.21575
 Alpha virt. eigenvalues --    0.24820   0.24871   0.26159   0.26409   0.28488

 Mulliken charges:
               1
     1  O   -0.287545
     2  C    0.610247
     3  F   -0.161351
     4  F   -0.161351
 Sum of Mulliken charges =  -0.00000

 Dipole moment (field-independent basis, Debye):
    X=             -0.0290    Y=             -0.0000    Z=             -1.0331  Tot=              1.0335
 Quadrupole moment (field-independent basis, Debye-Ang):
   XX=            -18.9046   YY=            -21.3174   ZZ=            -21.9188
   XY=              0.0000   XZ=              0.0221   YZ=              0.0000

 ESP charges:
               1
     1  O   -0.350437
     2  C    0.603881
     3  F   -0.126722
     4  F   -0.126722
 Sum of ESP charges =   0.00000

 Summary of Natural Population Analysis:

                                       Natural Population
                Natural  -----------------------------------------------
    Atom  No    Charge         Core      Valence    Rydberg      Total
 -----------------------------------------------------------------------
      O    1   -0.51567      1.99949     6.42012    0.09606     8.51567
      C    2    1.13530      1.99932     2.77752    0.08786     4.86470
      F    3   -0.30981      1.99980     7.22848    0.08154     9.30981
      F    4   -0.30981      1.99980     7.22848    0.08154     9.30981
 =======================================================================
   * Total *    0.00000      7.99841    23.65459    0.34700    32.00000

 Normal termination of Gaussian 16 at Sat Sep  3 02:10:47 2022.
