 Gaussian 16, Revision C.01,
 Gaussian 16:  EM64L-G16RevC.01  3-Jul-2019

 ----------------------------------------------------------------------
 # qcisd/aug-cc-pvtz nosymm density=current pop=(chelpg,hirshfeld,npa,d
 ipole)
 ----------------------------------------------------------------------

 -----------------
 f2co-wavefunction
 -----------------
 Symbolic Z-matrix:
 Charge =  0 Multiplicity = 1

                          Input orientation:
 ---------------------------------------------------------------------
 Center     Atomic      Atomic             Coordinates (Angstroms)
 Number     Number       Type             X           Y           Z
 ---------------------------------------------------------------------
      1          8           0        0.000000    0.000000    0.679927
      2          6           0        0.000000    0.000000   -0.482216
      3          9           0        0.000000   -1.058878   -1.264305
      4          9           0        0.000000    1.058878   -1.264305
 ---------------------------------------------------------------------

 SCF Done:  E(RHF) =  -311.741263836     A.U. after   11 cycles
 E2 =    -0.8955822853D+00 EUMP2 =    -0.31263684612113D+03

 Alpha  occ. eigenvalues --  -26.39048 -26.39045 -20.62275 -11.53268  -1.75916
 Alpha  occ. eigenvalues --   -1.68200  -1.48734  -0.95511  -0.86312  -0.81564
 Alpha  occ. eigenvalues --   -0.80457  -0.72465  -0.70852  -0.70227  -0.58211
 Alpha  occ. eigenvalues --   -0.56189
 Alpha virt. eigenvalues --    0.05535   0.07197   0.07802   0.07899   0.15464
 Alpha virt. eigenvalues --    0.17067   0.17172   0.19370   0.20031   0.21672
 Alpha virt. eigenvalues --    0.24744   0.24803   0.26184   0.26424   0.28533

 Mulliken charges:
               1
     1  O   -0.278711
     2  C    0.613235
     3  F   -0.167262
     4  F   -0.167262
 Sum of Mulliken charges =  -0.00000

 Dipole moment (field-independent basis, Debye):
    X=             -0.0000    Y=             -0.0000    Z=             -0.9249  Tot=              0.9249
 Quadrupole moment (field-independent basis, Debye-Ang):
   XX=            -18.8886   YY=            -21.3538   ZZ=            -21.9949
   XY=             -0.0000   XZ=             -0.0000   YZ=              0.0000

 ESP charges:
               1
     1  O   -0.461177
     2  C    0.900256
     3  F   -0.219539
     4  F   -0.219539
 Sum of ESP charges =   0.00000

 Summary of Natural Population Analysis:

                                       Natural Population
                Natural  -----------------------------------------------
    Atom  No    Charge         Core      Valence    Rydberg      Total
 -----------------------------------------------------------------------
      O    1   -0.50984      1.99947     6.41384    0.09654     8.50984
      C    2    1.13689      1.99928     2.77620    0.08763     4.86311
      F    3   -0.31352      1.99981     7.23218    0.08154     9.31352
      F    4   -0.31352      1.99981     7.23218    0.08154     9.31352
 =======================================================================
   * Total *   -0.00000      7.99836    23.65440    0.34724    32.00000

 Normal termination of Gaussian 16 at Sat Sep  3 03:21:01 2022.
