 Gaussian 16, Revision C.01,
 Gaussian 16:  EM64L-G16RevC.01  3-Jul-2019

 ----------------------------------------------------------------------
 # qcisd/aug-cc-pvtz nosymm density=current pop=(chelpg,hirshfeld,npa,d
 ipole)
 ----------------------------------------------------------------------

 -----------------
 f2co-wavefunction
 -----------------
 Symbolic Z-matrix:
 Charge =  0 Multiplicity = 1

                          Input orientation:
 ---------------------------------------------------------------------
 Center     Atomic      Atomic             Coordinates (Angstroms)
 Number     Number       Type             X           Y           Z
 ---------------------------------------------------------------------
      1          8           0        0.000000    0.000000    0.679927
      2          6           0        0.000000    0.000000   -0.492216
      3          9           0        0.000000   -1.058878   -1.264305
      4          9           0        0.000000    1.068878   -1.264305
 ---------------------------------------------------------------------

 SCF Done:  E(RHF) =  -311.740691320     A.U. after   12 cycles
 E2 =    -0.8964779921D+00 EUMP2 =    -0.31263716931180D+03

 Alpha  occ. eigenvalues --  -26.39451 -26.39162 -20.62124 -11.53480  -1.76108
 Alpha  occ. eigenvalues --   -1.68534  -1.47895  -0.95712  -0.86484  -0.81675
 Alpha  occ. eigenvalues --   -0.80526  -0.72713  -0.70576  -0.70538  -0.57724
 Alpha  occ. eigenvalues --   -0.55885
 Alpha virt. eigenvalues --    0.05512   0.07199   0.07802   0.07905   0.15216
 Alpha virt. eigenvalues --    0.17092   0.17195   0.19373   0.19965   0.21585
 Alpha virt. eigenvalues --    0.24746   0.24886   0.26180   0.26411   0.28498

 Mulliken charges:
               1
     1  O   -0.285711
     2  C    0.612494
     3  F   -0.159454
     4  F   -0.167330
 Sum of Mulliken charges =  -0.00000

 Dipole moment (field-independent basis, Debye):
    X=             -0.0000    Y=             -0.0360    Z=             -1.0136  Tot=              1.0143
 Quadrupole moment (field-independent basis, Debye-Ang):
   XX=            -18.9142   YY=            -21.3396   ZZ=            -21.9347
   XY=             -0.0000   XZ=              0.0000   YZ=              0.0450

 ESP charges:
               1
     1  O   -0.463823
     2  C    0.894648
     3  F   -0.212903
     4  F   -0.217923
 Sum of ESP charges =   0.00000

 Summary of Natural Population Analysis:

                                       Natural Population
                Natural  -----------------------------------------------
    Atom  No    Charge         Core      Valence    Rydberg      Total
 -----------------------------------------------------------------------
      O    1   -0.51440      1.99949     6.41883    0.09608     8.51440
      C    2    1.13611      1.99932     2.77694    0.08763     4.86389
      F    3   -0.30864      1.99980     7.22733    0.08150     9.30864
      F    4   -0.31308      1.99981     7.23181    0.08146     9.31308
 =======================================================================
   * Total *    0.00000      7.99841    23.65492    0.34667    32.00000

 Normal termination of Gaussian 16 at Sat Sep  3 07:18:30 2022.
