 Gaussian 16, Revision C.01,
 Gaussian 16:  EM64L-G16RevC.01  3-Jul-2019

 ----------------------------------------------------------------------
 # qcisd/aug-cc-pvtz nosymm density=current pop=(chelpg,hirshfeld,npa,d
 ipole)
 ----------------------------------------------------------------------

 -----------------
 f2co-wavefunction
 -----------------
 Symbolic Z-matrix:
 Charge =  0 Multiplicity = 1

                          Input orientation:
 ---------------------------------------------------------------------
 Center     Atomic      Atomic             Coordinates (Angstroms)
 Number     Number       Type             X           Y           Z
 ---------------------------------------------------------------------
      1          8           0        0.000000    0.000000    0.679927
      2          6           0        0.000000    0.000000   -0.492216
      3          9           0        0.000000   -1.058878   -1.264305
      4          9           0       -0.010000    1.058878   -1.264305
 ---------------------------------------------------------------------

 SCF Done:  E(RHF) =  -311.741233150     A.U. after   11 cycles
 E2 =    -0.8959071702D+00 EUMP2 =    -0.31263714032032D+03

 Alpha  occ. eigenvalues --  -26.39320 -26.39317 -20.62021 -11.53392  -1.76376
 Alpha  occ. eigenvalues --   -1.68671  -1.47833  -0.95856  -0.86620  -0.81834
 Alpha  occ. eigenvalues --   -0.80634  -0.72757  -0.70589  -0.70517  -0.57651
 Alpha  occ. eigenvalues --   -0.55832
 Alpha virt. eigenvalues --    0.05517   0.07195   0.07794   0.07908   0.15332
 Alpha virt. eigenvalues --    0.17099   0.17197   0.19384   0.19975   0.21580
 Alpha virt. eigenvalues --    0.24816   0.24867   0.26163   0.26401   0.28488

 Mulliken charges:
               1
     1  O   -0.287513
     2  C    0.610182
     3  F   -0.161316
     4  F   -0.161354
 Sum of Mulliken charges =  -0.00000

 Dipole moment (field-independent basis, Debye):
    X=              0.0061    Y=             -0.0001    Z=             -1.0332  Tot=              1.0332
 Quadrupole moment (field-independent basis, Debye-Ang):
   XX=            -18.9050   YY=            -21.3171   ZZ=            -21.9185
   XY=              0.0114   XZ=             -0.0126   YZ=              0.0002

 ESP charges:
               1
     1  O   -0.350468
     2  C    0.603920
     3  F   -0.126712
     4  F   -0.126740
 Sum of ESP charges =   0.00000

 Summary of Natural Population Analysis:

                                       Natural Population
                Natural  -----------------------------------------------
    Atom  No    Charge         Core      Valence    Rydberg      Total
 -----------------------------------------------------------------------
      O    1   -0.51571      1.99949     6.42016    0.09606     8.51571
      C    2    1.13533      1.99932     2.77749    0.08786     4.86467
      F    3   -0.30980      1.99980     7.22846    0.08154     9.30980
      F    4   -0.30982      1.99980     7.22848    0.08154     9.30982
 =======================================================================
   * Total *   -0.00000      7.99841    23.65459    0.34700    32.00000

 Normal termination of Gaussian 16 at Sat Sep  3 06:54:28 2022.
