 Gaussian 16, Revision C.01,
 Gaussian 16:  EM64L-G16RevC.01  3-Jul-2019

 ----------------------------------------------------------------------
 # qcisd/aug-cc-pvtz nosymm density=current pop=(chelpg,hirshfeld,npa,d
 ipole)
 ----------------------------------------------------------------------

 -----------------
 f2co-wavefunction
 -----------------
 Symbolic Z-matrix:
 Charge =  0 Multiplicity = 1

                          Input orientation:
 ---------------------------------------------------------------------
 Center     Atomic      Atomic             Coordinates (Angstroms)
 Number     Number       Type             X           Y           Z
 ---------------------------------------------------------------------
      1          8           0        0.010000    0.000000    0.679927
      2          6           0        0.000000    0.000000   -0.492216
      3          9           0        0.000000   -1.058878   -1.264305
      4          9           0        0.000000    1.058878   -1.264305
 ---------------------------------------------------------------------

 SCF Done:  E(RHF) =  -311.741228181     A.U. after   11 cycles
 E2 =    -0.8959099148D+00 EUMP2 =    -0.31263713809551D+03

 Alpha  occ. eigenvalues --  -26.39321 -26.39318 -20.62021 -11.53393  -1.76378
 Alpha  occ. eigenvalues --   -1.68672  -1.47830  -0.95857  -0.86621  -0.81835
 Alpha  occ. eigenvalues --   -0.80635  -0.72758  -0.70590  -0.70516  -0.57649
 Alpha  occ. eigenvalues --   -0.55831
 Alpha virt. eigenvalues --    0.05517   0.07195   0.07794   0.07908   0.15330
 Alpha virt. eigenvalues --    0.17099   0.17197   0.19383   0.19977   0.21579
 Alpha virt. eigenvalues --    0.24817   0.24868   0.26162   0.26401   0.28487

 Mulliken charges:
               1
     1  O   -0.287544
     2  C    0.610176
     3  F   -0.161316
     4  F   -0.161316
 Sum of Mulliken charges =  -0.00000

 Dipole moment (field-independent basis, Debye):
    X=             -0.0168    Y=              0.0000    Z=             -1.0335  Tot=              1.0336
 Quadrupole moment (field-independent basis, Debye-Ang):
   XX=            -18.9052   YY=            -21.3170   ZZ=            -21.9184
   XY=              0.0000   XZ=             -0.0134   YZ=             -0.0000

 ESP charges:
               1
     1  O   -0.350483
     2  C    0.603891
     3  F   -0.126704
     4  F   -0.126704
 Sum of ESP charges =   0.00000

 Summary of Natural Population Analysis:

                                       Natural Population
                Natural  -----------------------------------------------
    Atom  No    Charge         Core      Valence    Rydberg      Total
 -----------------------------------------------------------------------
      O    1   -0.51573      1.99949     6.42018    0.09606     8.51573
      C    2    1.13532      1.99932     2.77749    0.08786     4.86468
      F    3   -0.30980      1.99980     7.22846    0.08154     9.30980
      F    4   -0.30980      1.99980     7.22846    0.08154     9.30980
 =======================================================================
   * Total *   -0.00000      7.99841    23.65459    0.34700    32.00000

 Normal termination of Gaussian 16 at Fri Sep  2 23:30:18 2022.
