 Gaussian 16, Revision C.01,
 Gaussian 16:  EM64L-G16RevC.01  3-Jul-2019

 ----------------------------------------------------------------------
 # qcisd/aug-cc-pvtz nosymm density=current pop=(chelpg,hirshfeld,npa,d
 ipole)
 ----------------------------------------------------------------------

 -----------------
 f2co-wavefunction
 -----------------
 Symbolic Z-matrix:
 Charge =  0 Multiplicity = 1

                          Input orientation:
 ---------------------------------------------------------------------
 Center     Atomic      Atomic             Coordinates (Angstroms)
 Number     Number       Type             X           Y           Z
 ---------------------------------------------------------------------
      1          8           0        0.000000    0.000000    0.679927
      2          6           0        0.000000    0.000000   -0.492216
      3          9           0        0.000000   -1.058878   -1.264305
      4          9           0        0.000000    1.058878   -1.254305
 ---------------------------------------------------------------------

 SCF Done:  E(RHF) =  -311.741573726     A.U. after   12 cycles
 E2 =    -0.8954510966D+00 EUMP2 =    -0.31263702482307D+03

 Alpha  occ. eigenvalues --  -26.39427 -26.39312 -20.61878 -11.53313  -1.76563
 Alpha  occ. eigenvalues --   -1.68841  -1.47735  -0.95953  -0.86782  -0.81960
 Alpha  occ. eigenvalues --   -0.80686  -0.72844  -0.70703  -0.70440  -0.57547
 Alpha  occ. eigenvalues --   -0.55737
 Alpha virt. eigenvalues --    0.05516   0.07191   0.07791   0.07909   0.15418
 Alpha virt. eigenvalues --    0.17106   0.17203   0.19425   0.19955   0.21548
 Alpha virt. eigenvalues --    0.24865   0.24889   0.26153   0.26401   0.28477

 Mulliken charges:
               1
     1  O   -0.289938
     2  C    0.608460
     3  F   -0.161784
     4  F   -0.156738
 Sum of Mulliken charges =  -0.00000

 Dipole moment (field-independent basis, Debye):
    X=              0.0000    Y=              0.0172    Z=             -1.0639  Tot=              1.0640
 Quadrupole moment (field-independent basis, Debye-Ang):
   XX=            -18.8983   YY=            -21.2989   ZZ=            -21.8923
   XY=             -0.0000   XZ=              0.0000   YZ=             -0.0212

 ESP charges:
               1
     1  O   -0.470117
     2  C    0.899702
     3  F   -0.216479
     4  F   -0.213106
 Sum of ESP charges =  -0.00000

 Summary of Natural Population Analysis:

                                       Natural Population
                Natural  -----------------------------------------------
    Atom  No    Charge         Core      Valence    Rydberg      Total
 -----------------------------------------------------------------------
      O    1   -0.51735      1.99949     6.42177    0.09609     8.51735
      C    2    1.13448      1.99932     2.77815    0.08805     4.86552
      F    3   -0.30973      1.99980     7.22843    0.08150     9.30973
      F    4   -0.30739      1.99980     7.22601    0.08159     9.30739
 =======================================================================
   * Total *   -0.00000      7.99841    23.65436    0.34723    32.00000

 Normal termination of Gaussian 16 at Sat Sep  3 08:06:45 2022.
