 Gaussian 09, Revision B.01,
 Gaussian 09:  EM64L-G09RevB.01 12-Aug-2010

 ----------------------------------------------------------------------
 #freq=noraman qcisd/aug-cc-pvtz density=current iop(7/33=1) nosym form
 check=forcecart
 ----------------------------------------------------------------------

 -----------------
 br2co-frequencies
 -----------------
 Symbolic Z-matrix:
 Charge =  0 Multiplicity = 1

                          Input orientation:
 ---------------------------------------------------------------------
 Center     Atomic      Atomic             Coordinates (Angstroms)
 Number     Number       Type             X           Y           Z
 ---------------------------------------------------------------------
      1          6           0        0.000000    0.000000   -0.491759
      2         35           0        0.000000   -1.594181   -1.546820
      3         35           0        0.000000    1.594181   -1.546820
      4          8           0        0.000000    0.000000    0.684500
 ---------------------------------------------------------------------

 SCF Done:  E(RHF) =  -5257.68454935     A.U. after   12 cycles
 E2 =    -0.8640610682D+00 EUMP2 =    -0.52585486104195D+04
 SCF Done:  E(RHF) =  -5257.68454909     A.U. after    7 cycles
 E2 =    -0.8640611817D+00 EUMP2 =    -0.52585486102696D+04
 SCF Done:  E(RHF) =  -5257.68454909     A.U. after    7 cycles
 E2 =    -0.8640611871D+00 EUMP2 =    -0.52585486102749D+04
 SCF Done:  E(RHF) =  -5257.68454880     A.U. after    7 cycles
 E2 =    -0.8640612612D+00 EUMP2 =    -0.52585486100572D+04
 SCF Done:  E(RHF) =  -5257.68454880     A.U. after    8 cycles
 E2 =    -0.8640612369D+00 EUMP2 =    -0.52585486100330D+04
 SCF Done:  E(RHF) =  -5257.68463835     A.U. after    8 cycles
 E2 =    -0.8639470953D+00 EUMP2 =    -0.52585485854412D+04
 SCF Done:  E(RHF) =  -5257.68445704     A.U. after    9 cycles
 E2 =    -0.8641751032D+00 EUMP2 =    -0.52585486321435D+04
 SCF Done:  E(RHF) =  -5257.68454933     A.U. after    7 cycles
 E2 =    -0.8640610977D+00 EUMP2 =    -0.52585486104323D+04
 SCF Done:  E(RHF) =  -5257.68454933     A.U. after    8 cycles
 E2 =    -0.8640611012D+00 EUMP2 =    -0.52585486104357D+04
 SCF Done:  E(RHF) =  -5257.68455167     A.U. after    7 cycles
 E2 =    -0.8640627998D+00 EUMP2 =    -0.52585486144678D+04
 E2 =    -0.8640594535D+00 EUMP2 =    -0.52585486059759D+04
 E2 =    -0.8640546980D+00 EUMP2 =    -0.52585486100185D+04
 E2 =    -0.8640675051D+00 EUMP2 =    -0.52585486105945D+04
 E2 =    -0.8640610977D+00 EUMP2 =    -0.52585486104322D+04
 E2 =    -0.8640611012D+00 EUMP2 =    -0.52585486104357D+04
 SCF Done:  E(RHF) =  -5257.68454652     A.U. after    7 cycles
 E2 =    -0.8640594592D+00 EUMP2 =    -0.52585486059816D+04
 SCF Done:  E(RHF) =  -5257.68455167     A.U. after    8 cycles
 E2 =    -0.8640628056D+00 EUMP2 =    -0.52585486144736D+04
 SCF Done:  E(RHF) =  -5257.68455532     A.U. after    7 cycles
 E2 =    -0.8640546980D+00 EUMP2 =    -0.52585486100185D+04
 SCF Done:  E(RHF) =  -5257.68454309     A.U. after    8 cycles
 E2 =    -0.8640675051D+00 EUMP2 =    -0.52585486105945D+04
 SCF Done:  E(RHF) =  -5257.68454926     A.U. after    6 cycles
 E2 =    -0.8640611200D+00 EUMP2 =    -0.52585486103797D+04
 SCF Done:  E(RHF) =  -5257.68454926     A.U. after    7 cycles
 E2 =    -0.8640611547D+00 EUMP2 =    -0.52585486104143D+04
 SCF Done:  E(RHF) =  -5257.68454914     A.U. after    7 cycles
 E2 =    -0.8640611676D+00 EUMP2 =    -0.52585486103114D+04
 SCF Done:  E(RHF) =  -5257.68454914     A.U. after    7 cycles
 E2 =    -0.8640611728D+00 EUMP2 =    -0.52585486103166D+04
 SCF Done:  E(RHF) =  -5257.68444478     A.U. after    8 cycles
 E2 =    -0.8641879246D+00 EUMP2 =    -0.52585486327013D+04
 SCF Done:  E(RHF) =  -5257.68465054     A.U. after    9 cycles
 E2 =    -0.8639343172D+00 EUMP2 =    -0.52585485848615D+04

 Alpha  occ. eigenvalues -- -490.06629-490.06629 -65.20624 -65.20624 -58.56156
 Alpha  occ. eigenvalues --  -58.56156 -58.56006 -58.56006 -58.55989 -58.55989
 Alpha  occ. eigenvalues --  -20.62837 -11.46308  -9.87932  -9.87931  -7.49119
 Alpha  occ. eigenvalues --   -7.49118  -7.48398  -7.48398  -7.48327  -7.48327
 Alpha  occ. eigenvalues --   -3.23513  -3.23513  -3.23156  -3.23155  -3.23060
 Alpha  occ. eigenvalues --   -3.23059  -3.22151  -3.22151  -3.22149  -3.22149
 Alpha  occ. eigenvalues --   -1.48479  -1.10810  -1.04776  -0.79384  -0.68377
 Alpha  occ. eigenvalues --   -0.67632  -0.63108  -0.47896  -0.46168  -0.45781
 Alpha  occ. eigenvalues --   -0.45099  -0.43150
 Alpha virt. eigenvalues --    0.03793   0.05640   0.07005   0.07560   0.08200
 Alpha virt. eigenvalues --    0.09335   0.09994   0.10257   0.10941   0.11867
 Alpha virt. eigenvalues --    0.13018   0.13181   0.17482   0.19376   0.21901

 Mulliken atomic charges:
              1
     1  C    0.149749
     2  Br   0.103442
     3  Br   0.103442
     4  O   -0.356634
 Sum of Mulliken atomic charges =   0.00000

 Dipole moment (field-independent basis, Debye):
    X=              0.0000    Y=              0.0000    Z=             -1.2342  Tot=              1.2342
 Quadrupole moment (field-independent basis, Debye-Ang):
   XX=            -46.9619   YY=            -44.9430   ZZ=            -47.5290
   XY=              0.0000   XZ=              0.0000   YZ=              0.0000

                     1                      2                      3
                     A                      A                      A
 Frequencies --   184.9851               363.3601               442.5281
 Red. masses --    53.2382                20.0018                17.7344
 Frc consts  --     1.0734                 1.5559                 2.0462
 IR Inten    --     0.3699                 0.4668                 5.7588

                     4                      5                      6
                     A                      A                      A
 Frequencies --   530.4734               786.2654              1863.3353
 Red. masses --    12.6357                12.5852                13.4228
 Frc consts  --     2.0950                 4.5840                27.4585
 IR Inten    --     2.2994               430.9257               310.9918

 - Thermochemistry -
 -------------------
 Temperature   298.150 Kelvin.  Pressure   1.00000 Atm.
 Atom     1 has atomic number  6 and mass  12.00000

 Molecular mass:   185.83159 amu.
 Principal axes and moments of inertia in atomic units:
                           1         2         3
     Eigenvalues --   287.160381432.454751719.61513
           X            0.00000   0.00000   1.00000
           Y            1.00000   0.00000   0.00000
           Z            0.00000   1.00000   0.00000
 This molecule is an asymmetric top.
 Rotational symmetry number  2.
 Rotational temperatures (Kelvin)      0.30162     0.06047     0.05037
 Rotational constants (GHZ):           6.28478     1.25989     1.04950
 Zero-point vibrational energy      24947.8 (Joules/Mol)
                                    5.96267 (Kcal/Mol)
 Warning -- explicit consideration of   4 degrees of freedom as
           vibrations may cause significant error
 Vibrational temperatures:    266.15   522.79   636.70   763.23  1131.26
          (Kelvin)           2680.92

 Zero-point correction=                           0.009502 (Hartree/Particle)
 Thermal correction to Energy=                    0.013822
 Thermal correction to Enthalpy=                  0.014767
 Thermal correction to Gibbs Free Energy=        -0.020036
 Sum of electronic and zero-point Energies=          -5258.548267
 Sum of electronic and thermal Energies=             -5258.543947
 Sum of electronic and thermal Enthalpies=           -5258.543002
 Sum of electronic and thermal Free Energies=        -5258.577805

                     E (Thermal)             CV                S
                      KCal/Mol        Cal/Mol-Kelvin    Cal/Mol-Kelvin
 Total                    8.674             12.623             73.249
 Electronic               0.000              0.000              0.000
 Translational            0.889              2.981             41.565
 Rotational               0.889              2.981             26.672
 Vibrational              6.896              6.662              5.011
 Vibration     1          0.631              1.860              2.278
 Vibration     2          0.737              1.548              1.108
 Vibration     3          0.802              1.377              0.819
 Vibration     4          0.885              1.183              0.586

 Optimization completed.
    -- Stationary point found.
 Normal termination of Gaussian 09 at Fri Nov 19 03:31:53 2021.
