 Gaussian 09, Revision B.01,
 Gaussian 09:  EM64L-G09RevB.01 12-Aug-2010

 --------------------------------------------
 #opt qcisd/aug-cc-pvtz density=current nosym
 --------------------------------------------

 -----
 br2co
 -----
 Symbolic Z-matrix:
 Charge =  0 Multiplicity = 1

 SCF Done:  E(RHF) =  -5257.66630888     A.U. after   13 cycles
 E2 =    -0.8732688728D+00 EUMP2 =    -0.52585395777539D+04
 SCF Done:  E(RHF) =  -5257.68266281     A.U. after   11 cycles
 E2 =    -0.8652155236D+00 EUMP2 =    -0.52585478783323D+04
 SCF Done:  E(RHF) =  -5257.68489757     A.U. after   11 cycles
 E2 =    -0.8635366176D+00 EUMP2 =    -0.52585484341893D+04
 SCF Done:  E(RHF) =  -5257.68454943     A.U. after    9 cycles
 E2 =    -0.8640610581D+00 EUMP2 =    -0.52585486104864D+04
 Optimization completed.
    -- Stationary point found.

                          Input orientation:
 ---------------------------------------------------------------------
 Center     Atomic      Atomic             Coordinates (Angstroms)
 Number     Number       Type             X           Y           Z
 ---------------------------------------------------------------------
      1          6           0        0.000000    0.000000   -0.491759
      2         35           0        0.000000   -1.594181   -1.546820
      3         35           0        0.000000    1.594181   -1.546820
      4          8           0        0.000000    0.000000    0.684500
 ---------------------------------------------------------------------

 Alpha  occ. eigenvalues -- -490.06638-490.06638 -65.20633 -65.20633 -58.56165
 Alpha  occ. eigenvalues --  -58.56165 -58.56015 -58.56015 -58.55998 -58.55998
 Alpha  occ. eigenvalues --  -20.62832 -11.46325  -9.87940  -9.87940  -7.49128
 Alpha  occ. eigenvalues --   -7.49127  -7.48407  -7.48406  -7.48336  -7.48335
 Alpha  occ. eigenvalues --   -3.23522  -3.23522  -3.23165  -3.23163  -3.23069
 Alpha  occ. eigenvalues --   -3.23068  -3.22160  -3.22159  -3.22158  -3.22157
 Alpha  occ. eigenvalues --   -1.48400  -1.10818  -1.04780  -0.79379  -0.68342
 Alpha  occ. eigenvalues --   -0.67614  -0.63062  -0.47901  -0.46167  -0.45791
 Alpha  occ. eigenvalues --   -0.45104  -0.43156
 Alpha virt. eigenvalues --    0.03790   0.05638   0.07006   0.07544   0.08199
 Alpha virt. eigenvalues --    0.09328   0.09994   0.10256   0.10940   0.11868
 Alpha virt. eigenvalues --    0.13017   0.13181   0.17481   0.19374   0.21889

 Mulliken atomic charges:
              1
     1  C    0.149657
     2  Br   0.103727
     3  Br   0.103727
     4  O   -0.357111
 Sum of Mulliken atomic charges =   0.00000

 Dipole moment (field-independent basis, Debye):
    X=              0.0000    Y=              0.0000    Z=             -1.2404  Tot=              1.2404
 Quadrupole moment (field-independent basis, Debye-Ang):
   XX=            -46.9633   YY=            -44.9357   ZZ=            -47.5252
   XY=              0.0000   XZ=              0.0000   YZ=              0.0000

 Normal termination of Gaussian 09 at Thu Nov 18 08:48:19 2021.
