 Gaussian 09, Revision B.01,
 Gaussian 09:  EM64L-G09RevB.01 12-Aug-2010

 --------------------------------------------
 #opt qcisd/aug-cc-pvtz density=current nosym
 --------------------------------------------

 -----
 cl2co
 -----
 Symbolic Z-matrix:
 Charge =  0 Multiplicity = 1

 SCF Done:  E(RHF) =  -1031.78279701     A.U. after   12 cycles
 E2 =    -0.7889081060D+00 EUMP2 =    -0.10325717051165D+04
 SCF Done:  E(RHF) =  -1031.80142271     A.U. after   11 cycles
 E2 =    -0.7801937063D+00 EUMP2 =    -0.10325816164141D+04
 SCF Done:  E(RHF) =  -1031.80292261     A.U. after   10 cycles
 E2 =    -0.7791661269D+00 EUMP2 =    -0.10325820887377D+04
 SCF Done:  E(RHF) =  -1031.80274330     A.U. after    9 cycles
 E2 =    -0.7794087693D+00 EUMP2 =    -0.10325821520663D+04
 Optimization completed.
    -- Stationary point found.

                          Input orientation:
 ---------------------------------------------------------------------
 Center     Atomic      Atomic             Coordinates (Angstroms)
 Number     Number       Type             X           Y           Z
 ---------------------------------------------------------------------
      1          8           0        0.000000    0.000000    0.683397
      2          6           0        0.000000    0.000000   -0.494687
      3         17           0        0.000000   -1.446870   -1.469805
      4         17           0        0.000000    1.446870   -1.469805
 ---------------------------------------------------------------------

 Alpha  occ. eigenvalues -- -104.89033-104.89033 -20.62385 -11.47629 -10.61474
 Alpha  occ. eigenvalues --  -10.61472  -8.08151  -8.08151  -8.07940  -8.07939
 Alpha  occ. eigenvalues --   -8.07922  -8.07922  -1.48587  -1.20280  -1.14053
 Alpha  occ. eigenvalues --   -0.81223  -0.70798  -0.70168  -0.64881  -0.53115
 Alpha  occ. eigenvalues --   -0.50173  -0.49904  -0.49524  -0.47705
 Alpha virt. eigenvalues --    0.04778   0.06608   0.07970   0.08607   0.09323
 Alpha virt. eigenvalues --    0.09841   0.11377   0.12504   0.12770   0.13446
 Alpha virt. eigenvalues --    0.15700   0.15883   0.22043   0.22150   0.23662

 Mulliken atomic charges:
              1
     1  O   -0.320807
     2  C    0.325063
     3  Cl  -0.002128
     4  Cl  -0.002128
 Sum of Mulliken atomic charges =   0.00000

 Dipole moment (field-independent basis, Debye):
    X=              0.0000    Y=              0.0000    Z=             -1.2393  Tot=              1.2393
 Quadrupole moment (field-independent basis, Debye-Ang):
   XX=            -35.0849   YY=            -34.3836   ZZ=            -36.2851
   XY=              0.0000   XZ=              0.0000   YZ=              0.0000

 Normal termination of Gaussian 09 at Wed Nov 17 13:32:09 2021.
