 Gaussian 09, Revision B.01,
 Gaussian 09:  EM64L-G09RevB.01 12-Aug-2010

 ----------------------------------------------------------------------
 #freq=noraman qcisd/aug-cc-pvtz density=current iop(7/33=1) nosym form
 check=forcecart
 ----------------------------------------------------------------------

 -----------------
 cl2co-frequencies
 -----------------
 Symbolic Z-matrix:
 Charge =  0 Multiplicity = 1

                          Input orientation:
 ---------------------------------------------------------------------
 Center     Atomic      Atomic             Coordinates (Angstroms)
 Number     Number       Type             X           Y           Z
 ---------------------------------------------------------------------
      1          8           0        0.000000    0.000000    0.683397
      2          6           0        0.000000    0.000000   -0.494687
      3         17           0        0.000000   -1.446870   -1.469805
      4         17           0        0.000000    1.446870   -1.469805
 ---------------------------------------------------------------------

 SCF Done:  E(RHF) =  -1031.80274332     A.U. after   12 cycles
 E2 =    -0.7794087147D+00 EUMP2 =    -0.10325821520352D+04
 SCF Done:  E(RHF) =  -1031.80274322     A.U. after    6 cycles
 E2 =    -0.7794087517D+00 EUMP2 =    -0.10325821519742D+04
 SCF Done:  E(RHF) =  -1031.80274322     A.U. after    7 cycles
 E2 =    -0.7794087802D+00 EUMP2 =    -0.10325821520027D+04
 SCF Done:  E(RHF) =  -1031.80274310     A.U. after    7 cycles
 E2 =    -0.7794087905D+00 EUMP2 =    -0.10325821518871D+04
 SCF Done:  E(RHF) =  -1031.80274310     A.U. after    7 cycles
 E2 =    -0.7794087929D+00 EUMP2 =    -0.10325821518895D+04
 SCF Done:  E(RHF) =  -1031.80263937     A.U. after    7 cycles
 E2 =    -0.7795345139D+00 EUMP2 =    -0.10325821738824D+04
 SCF Done:  E(RHF) =  -1031.80284387     A.U. after    8 cycles
 E2 =    -0.7792829736D+00 EUMP2 =    -0.10325821268476D+04
 SCF Done:  E(RHF) =  -1031.80274300     A.U. after    7 cycles
 E2 =    -0.7794088206D+00 EUMP2 =    -0.10325821518198D+04
 SCF Done:  E(RHF) =  -1031.80274300     A.U. after    7 cycles
 E2 =    -0.7794088266D+00 EUMP2 =    -0.10325821518259D+04
 SCF Done:  E(RHF) =  -1031.80274268     A.U. after    7 cycles
 E2 =    -0.7794088770D+00 EUMP2 =    -0.10325821515540D+04
 E2 =    -0.7794088909D+00 EUMP2 =    -0.10325821515679D+04
 E2 =    -0.7793074754D+00 EUMP2 =    -0.10325821289674D+04
 E2 =    -0.7795099931D+00 EUMP2 =    -0.10325821717122D+04
 E2 =    -0.7794087270D+00 EUMP2 =    -0.10325821520229D+04
 E2 =    -0.7794087213D+00 EUMP2 =    -0.10325821520172D+04
 SCF Done:  E(RHF) =  -1031.80275294     A.U. after    7 cycles
 E2 =    -0.7794013178D+00 EUMP2 =    -0.10325821542603D+04
 SCF Done:  E(RHF) =  -1031.80273306     A.U. after    8 cycles
 E2 =    -0.7794161862D+00 EUMP2 =    -0.10325821492475D+04
 SCF Done:  E(RHF) =  -1031.80275431     A.U. after    7 cycles
 E2 =    -0.7793964810D+00 EUMP2 =    -0.10325821507946D+04
 SCF Done:  E(RHF) =  -1031.80273195     A.U. after    8 cycles
 E2 =    -0.7794209817D+00 EUMP2 =    -0.10325821529288D+04
 SCF Done:  E(RHF) =  -1031.80274330     A.U. after    7 cycles
 E2 =    -0.7794087270D+00 EUMP2 =    -0.10325821520229D+04
 SCF Done:  E(RHF) =  -1031.80274330     A.U. after    8 cycles
 E2 =    -0.7794087213D+00 EUMP2 =    -0.10325821520172D+04
 SCF Done:  E(RHF) =  -1031.80273306     A.U. after    7 cycles
 E2 =    -0.7794161905D+00 EUMP2 =    -0.10325821492519D+04
 SCF Done:  E(RHF) =  -1031.80275294     A.U. after    8 cycles
 E2 =    -0.7794013222D+00 EUMP2 =    -0.10325821542647D+04
 SCF Done:  E(RHF) =  -1031.80275431     A.U. after    7 cycles
 E2 =    -0.7793964810D+00 EUMP2 =    -0.10325821507946D+04
 SCF Done:  E(RHF) =  -1031.80273195     A.U. after    8 cycles
 E2 =    -0.7794209817D+00 EUMP2 =    -0.10325821529288D+04

 Alpha  occ. eigenvalues -- -104.89035-104.89032 -20.62393 -11.47635 -10.61475
 Alpha  occ. eigenvalues --  -10.61470  -8.08152  -8.08148  -8.07941  -8.07937
 Alpha  occ. eigenvalues --   -8.07924  -8.07920  -1.48590  -1.20274  -1.14046
 Alpha  occ. eigenvalues --   -0.81224  -0.70795  -0.70169  -0.64879  -0.53115
 Alpha  occ. eigenvalues --   -0.50171  -0.49907  -0.49521  -0.47705
 Alpha virt. eigenvalues --    0.04777   0.06608   0.07969   0.08607   0.09321
 Alpha virt. eigenvalues --    0.09838   0.11377   0.12503   0.12770   0.13445
 Alpha virt. eigenvalues --    0.15693   0.15884   0.22042   0.22151   0.23661

 Mulliken atomic charges:
              1
     1  O   -0.320718
     2  C    0.325281
     3  Cl  -0.002023
     4  Cl  -0.002541
 Sum of Mulliken atomic charges =   0.00000

 Dipole moment (field-independent basis, Debye):
    X=              0.0000    Y=             -0.0017    Z=             -1.2380  Tot=              1.2380
 Quadrupole moment (field-independent basis, Debye-Ang):
   XX=            -35.0859   YY=            -34.3868   ZZ=            -36.2847
   XY=              0.0000   XZ=              0.0000   YZ=              0.0016

                     1                      2                      3
                     A                      A                      A
 Frequencies --   306.2412               452.9753               584.4605
 Red. masses --    27.3361                20.7729                19.6372
 Frc consts  --     1.5105                 2.5113                 3.9522
 IR Inten    --     0.1429                 0.0065                16.1136

                     4                      5                      6
                     A                      A                      A
 Frequencies --   594.5979               881.3506              1868.5243
 Red. masses --    12.7643                12.9248                13.3874
 Frc consts  --     2.6589                 5.9152                27.5387
 IR Inten    --     5.5708               441.3809               318.1618

 - Thermochemistry -
 -------------------
 Temperature   298.150 Kelvin.  Pressure   1.00000 Atm.
 Atom     1 has atomic number  8 and mass  15.99491

 Molecular mass:    97.93262 amu.
 Principal axes and moments of inertia in atomic units:
                           1         2         3
     Eigenvalues --   227.93084 522.83920 750.77004
           X            0.00000   0.00000   1.00000
           Y            1.00000   0.00000   0.00000
           Z            0.00000   1.00000   0.00000
 This molecule is an asymmetric top.
 Rotational symmetry number  2.
 Rotational temperatures (Kelvin)      0.38000     0.16566     0.11537
 Rotational constants (GHZ):           7.91793     3.45181     2.40385
 Zero-point vibrational energy      28041.4 (Joules/Mol)
                                    6.70205 (Kcal/Mol)
 Warning -- explicit consideration of   4 degrees of freedom as
           vibrations may cause significant error
 Vibrational temperatures:    440.61   651.73   840.91   855.49  1268.07
          (Kelvin)           2688.39

 Zero-point correction=                           0.010680 (Hartree/Particle)
 Thermal correction to Energy=                    0.014577
 Thermal correction to Enthalpy=                  0.015521
 Thermal correction to Gibbs Free Energy=        -0.016565
 Sum of electronic and zero-point Energies=          -1032.594923
 Sum of electronic and thermal Energies=             -1032.591026
 Sum of electronic and thermal Enthalpies=           -1032.590082
 Sum of electronic and thermal Free Energies=        -1032.622169

                     E (Thermal)             CV                S
                      KCal/Mol        Cal/Mol-Kelvin    Cal/Mol-Kelvin
 Total                    9.147             11.632             67.532
 Electronic               0.000              0.000              0.000
 Translational            0.889              2.981             39.656
 Rotational               0.889              2.981             24.618
 Vibrational              7.370              5.670              3.258
 Vibration     1          0.697              1.662              1.383
 Vibration     2          0.812              1.354              0.787
 Vibration     3          0.941              1.065              0.477
 Vibration     4          0.952              1.043              0.459

 Optimization completed.
    -- Stationary point found.
 Normal termination of Gaussian 09 at Wed Nov 17 20:54:10 2021.
