 Gaussian 16, Revision C.01,
 Gaussian 16:  EM64L-G16RevC.01  3-Jul-2019

 ----------------------------------------------------------------------
 # qcisd/aug-cc-pvtz nosymm density=current pop=(chelpg,hirshfeld,npa,d
 ipole)
 ----------------------------------------------------------------------

 -----------------
 h2co-wavefunction
 -----------------
 Symbolic Z-matrix:
 Charge =  0 Multiplicity = 1

                          Input orientation:
 ---------------------------------------------------------------------
 Center     Atomic      Atomic             Coordinates (Angstroms)
 Number     Number       Type             X           Y           Z
 ---------------------------------------------------------------------
      1          8           0        0.000000    0.000000    0.679252
      2          6           0        0.000000    0.000000   -0.526911
      3          1           0        0.000000    0.936614   -1.116620
      4          1           0        0.000000   -0.936614   -1.106620
 ---------------------------------------------------------------------

 SCF Done:  E(RHF) =  -113.913712722     A.U. after   11 cycles
 E2 =    -0.4026081494D+00 EUMP2 =    -0.11431632087106D+03

 Alpha  occ. eigenvalues --  -20.57925 -11.34317  -1.40683  -0.87090  -0.69421
 Alpha  occ. eigenvalues --   -0.65280  -0.53742  -0.44358
 Alpha virt. eigenvalues --    0.02624   0.04173   0.06236   0.07646   0.12921
 Alpha virt. eigenvalues --    0.13288   0.13336   0.17435   0.19841   0.21163
 Alpha virt. eigenvalues --    0.21707   0.25419   0.25609   0.28075   0.32025

 Mulliken charges:
               1
     1  O   -0.416078
     2  C   -0.479354
     3  H    0.445285
     4  H    0.450148
 Sum of Mulliken charges =  -0.00000

 Dipole moment (field-independent basis, Debye):
    X=              0.0000    Y=             -0.0038    Z=             -2.4396  Tot=              2.4396
 Quadrupole moment (field-independent basis, Debye-Ang):
   XX=            -11.7426   YY=            -11.6370   ZZ=            -12.2621
   XY=             -0.0000   XZ=             -0.0000   YZ=             -0.0042

 ESP charges:
               1
     1  O   -0.426608
     2  C    0.437957
     3  H   -0.006098
     4  H   -0.005251
 Sum of ESP charges =  -0.00000

 Summary of Natural Population Analysis:

                                       Natural Population
                Natural  -----------------------------------------------
    Atom  No    Charge         Core      Valence    Rydberg      Total
 -----------------------------------------------------------------------
      O    1   -0.48586      1.99960     6.38743    0.09883     8.48586
      C    2    0.30031      1.99949     3.62708    0.07313     5.69969
      H    3    0.09275      0.00000     0.89751    0.00974     0.90725
      H    4    0.09280      0.00000     0.89741    0.00978     0.90720
 =======================================================================
   * Total *   -0.00000      3.99909    11.80943    0.19148    16.00000

 Normal termination of Gaussian 16 at Fri Sep  2 19:39:01 2022.
