 Gaussian 16, Revision C.01,
 Gaussian 16:  EM64L-G16RevC.01  3-Jul-2019

 ----------------------------------------------------------------------
 # qcisd/aug-cc-pvtz nosymm density=current pop=(chelpg,hirshfeld,npa,d
 ipole)
 ----------------------------------------------------------------------

 -----------------
 h2co-wavefunction
 -----------------
 Symbolic Z-matrix:
 Charge =  0 Multiplicity = 1

                          Input orientation:
 ---------------------------------------------------------------------
 Center     Atomic      Atomic             Coordinates (Angstroms)
 Number     Number       Type             X           Y           Z
 ---------------------------------------------------------------------
      1          8           0        0.000000    0.000000    0.679252
      2          6           0        0.000000    0.000000   -0.536911
      3          1           0        0.000000    0.936614   -1.106620
      4          1           0        0.000000   -0.936614   -1.106620
 ---------------------------------------------------------------------

 SCF Done:  E(RHF) =  -113.912852358     A.U. after   11 cycles
 E2 =    -0.4035171423D+00 EUMP2 =    -0.11431636949992D+03

 Alpha  occ. eigenvalues --  -20.57894 -11.34306  -1.39997  -0.87410  -0.69570
 Alpha  occ. eigenvalues --   -0.64917  -0.53258  -0.44561
 Alpha virt. eigenvalues --    0.02612   0.04146   0.06184   0.07652   0.12753
 Alpha virt. eigenvalues --    0.13285   0.13378   0.17438   0.19745   0.21218
 Alpha virt. eigenvalues --    0.21698   0.25354   0.25586   0.28181   0.32033

 Mulliken charges:
               1
     1  O   -0.420243
     2  C   -0.494662
     3  H    0.457453
     4  H    0.457453
 Sum of Mulliken charges =  -0.00000

 Dipole moment (field-independent basis, Debye):
    X=              0.0000    Y=             -0.0000    Z=             -2.4875  Tot=              2.4875
 Quadrupole moment (field-independent basis, Debye-Ang):
   XX=            -11.7576   YY=            -11.5922   ZZ=            -12.2368
   XY=             -0.0000   XZ=             -0.0000   YZ=              0.0000

 ESP charges:
               1
     1  O   -0.426757
     2  C    0.428715
     3  H   -0.000979
     4  H   -0.000979
 Sum of ESP charges =  -0.00000

 Summary of Natural Population Analysis:

                                       Natural Population
                Natural  -----------------------------------------------
    Atom  No    Charge         Core      Valence    Rydberg      Total
 -----------------------------------------------------------------------
      O    1   -0.48728      1.99962     6.38933    0.09833     8.48728
      C    2    0.29498      1.99948     3.63285    0.07269     5.70502
      H    3    0.09615      0.00000     0.89411    0.00974     0.90385
      H    4    0.09615      0.00000     0.89411    0.00974     0.90385
 =======================================================================
   * Total *   -0.00000      3.99910    11.81040    0.19050    16.00000

 Normal termination of Gaussian 16 at Fri Sep  2 19:05:43 2022.
