 Gaussian 16, Revision C.01,
 Gaussian 16:  EM64L-G16RevC.01  3-Jul-2019

 ----------------------------------------------------------------------
 # qcisd/aug-cc-pvtz nosymm density=current pop=(chelpg,hirshfeld,npa,d
 ipole)
 ----------------------------------------------------------------------

 -----------------
 h2co-wavefunction
 -----------------
 Symbolic Z-matrix:
 Charge =  0 Multiplicity = 1

                          Input orientation:
 ---------------------------------------------------------------------
 Center     Atomic      Atomic             Coordinates (Angstroms)
 Number     Number       Type             X           Y           Z
 ---------------------------------------------------------------------
      1          8           0        0.000000    0.000000    0.679252
      2          6           0        0.000000    0.000000   -0.516911
      3          1           0        0.000000    0.936614   -1.106620
      4          1           0        0.000000   -0.936614   -1.106620
 ---------------------------------------------------------------------

 SCF Done:  E(RHF) =  -113.914437173     A.U. after   11 cycles
 E2 =    -0.4015364795D+00 EUMP2 =    -0.11431597365284D+03

 Alpha  occ. eigenvalues --  -20.57887 -11.34178  -1.41352  -0.86861  -0.69519
 Alpha  occ. eigenvalues --   -0.65574  -0.54191  -0.44189
 Alpha virt. eigenvalues --    0.02640   0.04191   0.06292   0.07640   0.13106
 Alpha virt. eigenvalues --    0.13306   0.13314   0.17427   0.19894   0.21126
 Alpha virt. eigenvalues --    0.21728   0.25463   0.25632   0.28065   0.32071

 Mulliken charges:
               1
     1  O   -0.414149
     2  C   -0.473912
     3  H    0.444030
     4  H    0.444030
 Sum of Mulliken charges =  -0.00000

 Dipole moment (field-independent basis, Debye):
    X=             -0.0000    Y=              0.0000    Z=             -2.3948  Tot=              2.3948
 Quadrupole moment (field-independent basis, Debye-Ang):
   XX=            -11.7180   YY=            -11.6521   ZZ=            -12.3050
   XY=             -0.0000   XZ=             -0.0000   YZ=             -0.0000

 ESP charges:
               1
     1  O   -0.427216
     2  C    0.448291
     3  H   -0.010538
     4  H   -0.010538
 Sum of ESP charges =   0.00000

 Summary of Natural Population Analysis:

                                       Natural Population
                Natural  -----------------------------------------------
    Atom  No    Charge         Core      Valence    Rydberg      Total
 -----------------------------------------------------------------------
      O    1   -0.48465      1.99959     6.38565    0.09941     8.48465
      C    2    0.30482      1.99949     3.62224    0.07346     5.69518
      H    3    0.08992      0.00000     0.90026    0.00982     0.91008
      H    4    0.08992      0.00000     0.90026    0.00982     0.91008
 =======================================================================
   * Total *   -0.00000      3.99908    11.80840    0.19252    16.00000

 Normal termination of Gaussian 16 at Fri Sep  2 19:00:07 2022.
