 Gaussian 16, Revision C.01,
 Gaussian 16:  EM64L-G16RevC.01  3-Jul-2019

 ----------------------------------------------------------------------
 # qcisd/aug-cc-pvtz nosymm density=current pop=(chelpg,hirshfeld,npa,d
 ipole)
 ----------------------------------------------------------------------

 -----------------
 h2co-wavefunction
 -----------------
 Symbolic Z-matrix:
 Charge =  0 Multiplicity = 1

                          Input orientation:
 ---------------------------------------------------------------------
 Center     Atomic      Atomic             Coordinates (Angstroms)
 Number     Number       Type             X           Y           Z
 ---------------------------------------------------------------------
      1          8           0        0.000000    0.000000    0.679252
      2          6           0        0.000000   -0.010000   -0.526911
      3          1           0        0.000000    0.936614   -1.106620
      4          1           0        0.000000   -0.936614   -1.106620
 ---------------------------------------------------------------------

 SCF Done:  E(RHF) =  -113.913709450     A.U. after   11 cycles
 E2 =    -0.4025278498D+00 EUMP2 =    -0.11431623730014D+03

 Alpha  occ. eigenvalues --  -20.57891 -11.34243  -1.40665  -0.87147  -0.69535
 Alpha  occ. eigenvalues --   -0.65242  -0.53718  -0.44377
 Alpha virt. eigenvalues --    0.02626   0.04169   0.06239   0.07646   0.12927
 Alpha virt. eigenvalues --    0.13289   0.13352   0.17432   0.19815   0.21171
 Alpha virt. eigenvalues --    0.21715   0.25409   0.25609   0.28126   0.32050

 Mulliken charges:
               1
     1  O   -0.417479
     2  C   -0.484162
     3  H    0.438472
     4  H    0.463168
 Sum of Mulliken charges =  -0.00000

 Dipole moment (field-independent basis, Debye):
    X=              0.0000    Y=             -0.0368    Z=             -2.4417  Tot=              2.4420
 Quadrupole moment (field-independent basis, Debye-Ang):
   XX=            -11.7380   YY=            -11.6213   ZZ=            -12.2715
   XY=             -0.0000   XZ=             -0.0000   YZ=              0.0532

 ESP charges:
               1
     1  O   -0.426977
     2  C    0.438458
     3  H   -0.007485
     4  H   -0.003996
 Sum of ESP charges =   0.00000

 Summary of Natural Population Analysis:

                                       Natural Population
                Natural  -----------------------------------------------
    Atom  No    Charge         Core      Valence    Rydberg      Total
 -----------------------------------------------------------------------
      O    1   -0.48598      1.99960     6.38751    0.09886     8.48598
      C    2    0.29990      1.99948     3.62754    0.07307     5.70010
      H    3    0.09149      0.00000     0.89869    0.00982     0.90851
      H    4    0.09458      0.00000     0.89568    0.00974     0.90542
 =======================================================================
   * Total *    0.00000      3.99909    11.80942    0.19149    16.00000

 Normal termination of Gaussian 16 at Fri Sep  2 18:54:32 2022.
