 Gaussian 16, Revision C.01,
 Gaussian 16:  EM64L-G16RevC.01  3-Jul-2019

 ----------------------------------------------------------------------
 # qcisd/aug-cc-pvtz nosymm density=current pop=(chelpg,hirshfeld,npa,d
 ipole)
 ----------------------------------------------------------------------

 -----------------
 h2co-wavefunction
 -----------------
 Symbolic Z-matrix:
 Charge =  0 Multiplicity = 1

                          Input orientation:
 ---------------------------------------------------------------------
 Center     Atomic      Atomic             Coordinates (Angstroms)
 Number     Number       Type             X           Y           Z
 ---------------------------------------------------------------------
      1          8           0        0.000000    0.000000    0.679252
      2          6           0        0.000000    0.000000   -0.526911
      3          1           0        0.010000    0.936614   -1.106620
      4          1           0        0.000000   -0.936614   -1.106620
 ---------------------------------------------------------------------

 SCF Done:  E(RHF) =  -113.913821617     A.U. after   11 cycles
 E2 =    -0.4025194031D+00 EUMP2 =    -0.11431634102060D+03

 Alpha  occ. eigenvalues --  -20.57889 -11.34242  -1.40667  -0.87136  -0.69534
 Alpha  occ. eigenvalues --   -0.65246  -0.53718  -0.44380
 Alpha virt. eigenvalues --    0.02626   0.04168   0.06240   0.07646   0.12928
 Alpha virt. eigenvalues --    0.13296   0.13346   0.17433   0.19819   0.21172
 Alpha virt. eigenvalues --    0.21714   0.25407   0.25610   0.28125   0.32051

 Mulliken charges:
               1
     1  O   -0.417403
     2  C   -0.484191
     3  H    0.450768
     4  H    0.450826
 Sum of Mulliken charges =  -0.00000

 Dipole moment (field-independent basis, Debye):
    X=              0.0045    Y=             -0.0001    Z=             -2.4420  Tot=              2.4420
 Quadrupole moment (field-independent basis, Debye-Ang):
   XX=            -11.7378   YY=            -11.6215   ZZ=            -12.2709
   XY=              0.0006   XZ=             -0.0039   YZ=              0.0001

 ESP charges:
               1
     1  O   -0.330720
     2  C    0.141805
     3  H    0.094451
     4  H    0.094465
 Sum of ESP charges =   0.00000

 Summary of Natural Population Analysis:

                                       Natural Population
                Natural  -----------------------------------------------
    Atom  No    Charge         Core      Valence    Rydberg      Total
 -----------------------------------------------------------------------
      O    1   -0.48600      1.99960     6.38753    0.09886     8.48600
      C    2    0.29980      1.99948     3.62764    0.07308     5.70020
      H    3    0.09309      0.00000     0.89713    0.00978     0.90691
      H    4    0.09310      0.00000     0.89712    0.00978     0.90690
 =======================================================================
   * Total *   -0.00000      3.99909    11.80942    0.19149    16.00000

 Normal termination of Gaussian 16 at Fri Sep  2 19:11:19 2022.
