 Gaussian 16, Revision C.01,
 Gaussian 16:  EM64L-G16RevC.01  3-Jul-2019

 ----------------------------------------------------------------------
 # qcisd/aug-cc-pvtz nosymm density=current pop=(chelpg,hirshfeld,npa,d
 ipole)
 ----------------------------------------------------------------------

 -----------------
 h2co-wavefunction
 -----------------
 Symbolic Z-matrix:
 Charge =  0 Multiplicity = 1

                          Input orientation:
 ---------------------------------------------------------------------
 Center     Atomic      Atomic             Coordinates (Angstroms)
 Number     Number       Type             X           Y           Z
 ---------------------------------------------------------------------
      1          8           0        0.000000    0.000000    0.669252
      2          6           0        0.000000    0.000000   -0.526911
      3          1           0        0.000000    0.936614   -1.106620
      4          1           0        0.000000   -0.936614   -1.106620
 ---------------------------------------------------------------------

 SCF Done:  E(RHF) =  -113.914636962     A.U. after   11 cycles
 E2 =    -0.4013573747D+00 EUMP2 =    -0.11431599433697D+03

 Alpha  occ. eigenvalues --  -20.57814 -11.34024  -1.41319  -0.86953  -0.69742
 Alpha  occ. eigenvalues --   -0.65504  -0.54142  -0.44235
 Alpha virt. eigenvalues --    0.02644   0.04180   0.06299   0.07642   0.13121
 Alpha virt. eigenvalues --    0.13320   0.13337   0.17422   0.19847   0.21144
 Alpha virt. eigenvalues --    0.21744   0.25441   0.25633   0.28163   0.32123

 Mulliken charges:
               1
     1  O   -0.416859
     2  C   -0.483703
     3  H    0.450281
     4  H    0.450281
 Sum of Mulliken charges =  -0.00000

 Dipole moment (field-independent basis, Debye):
    X=             -0.0000    Y=              0.0000    Z=             -2.4001  Tot=              2.4001
 Quadrupole moment (field-independent basis, Debye-Ang):
   XX=            -11.7083   YY=            -11.6207   ZZ=            -12.2739
   XY=              0.0000   XZ=              0.0000   YZ=             -0.0000

 ESP charges:
               1
     1  O   -0.428082
     2  C    0.449430
     3  H   -0.010674
     4  H   -0.010674
 Sum of ESP charges =   0.00000

 Summary of Natural Population Analysis:

                                       Natural Population
                Natural  -----------------------------------------------
    Atom  No    Charge         Core      Valence    Rydberg      Total
 -----------------------------------------------------------------------
      O    1   -0.48492      1.99959     6.38585    0.09947     8.48492
      C    2    0.30378      1.99948     3.62339    0.07336     5.69622
      H    3    0.09057      0.00000     0.89957    0.00986     0.90943
      H    4    0.09057      0.00000     0.89957    0.00986     0.90943
 =======================================================================
   * Total *   -0.00000      3.99907    11.80838    0.19255    16.00000

 Normal termination of Gaussian 16 at Fri Sep  2 18:32:44 2022.
