 Gaussian 16, Revision C.01,
 Gaussian 16:  EM64L-G16RevC.01  3-Jul-2019

 ----------------------------------------------------------------------
 # qcisd/aug-cc-pvtz nosymm density=current pop=(chelpg,hirshfeld,npa,d
 ipole)
 ----------------------------------------------------------------------

 -----------------
 h2co-wavefunction
 -----------------
 Symbolic Z-matrix:
 Charge =  0 Multiplicity = 1

                          Input orientation:
 ---------------------------------------------------------------------
 Center     Atomic      Atomic             Coordinates (Angstroms)
 Number     Number       Type             X           Y           Z
 ---------------------------------------------------------------------
      1          8           0        0.000000    0.000000    0.679252
      2          6           0        0.000000    0.000000   -0.526911
      3          1           0        0.000000    0.936614   -1.106620
      4          1           0        0.000000   -0.936614   -1.096620
 ---------------------------------------------------------------------

 SCF Done:  E(RHF) =  -113.913888912     A.U. after   11 cycles
 E2 =    -0.4024318288D+00 EUMP2 =    -0.11431632074115D+03

 Alpha  occ. eigenvalues --  -20.57854 -11.34165  -1.40652  -0.87182  -0.69649
 Alpha  occ. eigenvalues --   -0.65211  -0.53695  -0.44401
 Alpha virt. eigenvalues --    0.02628   0.04163   0.06243   0.07647   0.12936
 Alpha virt. eigenvalues --    0.13302   0.13358   0.17430   0.19795   0.21181
 Alpha virt. eigenvalues --    0.21722   0.25398   0.25611   0.28172   0.32077

 Mulliken charges:
               1
     1  O   -0.418716
     2  C   -0.489091
     3  H    0.451498
     4  H    0.456309
 Sum of Mulliken charges =   0.00000

 Dipole moment (field-independent basis, Debye):
    X=              0.0000    Y=             -0.0036    Z=             -2.4444  Tot=              2.4444
 Quadrupole moment (field-independent basis, Debye-Ang):
   XX=            -11.7331   YY=            -11.6060   ZZ=            -12.2796
   XY=             -0.0000   XZ=              0.0000   YZ=             -0.0046

 ESP charges:
               1
     1  O   -0.427460
     2  C    0.439054
     3  H   -0.006198
     4  H   -0.005397
 Sum of ESP charges =   0.00000

 Summary of Natural Population Analysis:

                                       Natural Population
                Natural  -----------------------------------------------
    Atom  No    Charge         Core      Valence    Rydberg      Total
 -----------------------------------------------------------------------
      O    1   -0.48614      1.99961     6.38764    0.09890     8.48614
      C    2    0.29931      1.99948     3.62819    0.07302     5.70069
      H    3    0.09340      0.00000     0.89683    0.00977     0.90660
      H    4    0.09343      0.00000     0.89675    0.00982     0.90657
 =======================================================================
   * Total *   -0.00000      3.99909    11.80940    0.19152    16.00000

 Normal termination of Gaussian 16 at Fri Sep  2 20:07:00 2022.
