 Gaussian 16, Revision C.01,
 Gaussian 16:  EM64L-G16RevC.01  3-Jul-2019

 ----------------------------------------------------------------------
 # qcisd/aug-cc-pvtz nosymm density=current pop=(chelpg,hirshfeld,npa,d
 ipole)
 ----------------------------------------------------------------------

 -----------------
 h2co-wavefunction
 -----------------
 Symbolic Z-matrix:
 Charge =  0 Multiplicity = 1

                          Input orientation:
 ---------------------------------------------------------------------
 Center     Atomic      Atomic             Coordinates (Angstroms)
 Number     Number       Type             X           Y           Z
 ---------------------------------------------------------------------
      1          8           0        0.000000    0.000000    0.679252
      2          6           0        0.000000    0.000000   -0.526911
      3          1           0        0.000000    0.936614   -1.106620
      4          1           0        0.000000   -0.946614   -1.106620
 ---------------------------------------------------------------------

 SCF Done:  E(RHF) =  -113.913661883     A.U. after   11 cycles
 E2 =    -0.4026302668D+00 EUMP2 =    -0.11431629214981D+03

 Alpha  occ. eigenvalues --  -20.57900 -11.34333  -1.40680  -0.86977  -0.69465
 Alpha  occ. eigenvalues --   -0.65212  -0.53730  -0.44347
 Alpha virt. eigenvalues --    0.02629   0.04168   0.06242   0.07646   0.12936
 Alpha virt. eigenvalues --    0.13298   0.13351   0.17414   0.19816   0.21173
 Alpha virt. eigenvalues --    0.21646   0.25391   0.25608   0.28114   0.32060

 Mulliken charges:
               1
     1  O   -0.415691
     2  C   -0.477382
     3  H    0.451998
     4  H    0.441075
 Sum of Mulliken charges =  -0.00000

 Dipole moment (field-independent basis, Debye):
    X=              0.0000    Y=              0.0076    Z=             -2.4355  Tot=              2.4355
 Quadrupole moment (field-independent basis, Debye-Ang):
   XX=            -11.7481   YY=            -11.6149   ZZ=            -12.2878
   XY=             -0.0000   XZ=              0.0000   YZ=             -0.0129

 ESP charges:
               1
     1  O   -0.425263
     2  C    0.435403
     3  H   -0.004257
     4  H   -0.005883
 Sum of ESP charges =   0.00000

 Summary of Natural Population Analysis:

                                       Natural Population
                Natural  -----------------------------------------------
    Atom  No    Charge         Core      Valence    Rydberg      Total
 -----------------------------------------------------------------------
      O    1   -0.48650      1.99960     6.38800    0.09890     8.48650
      C    2    0.29904      1.99949     3.62825    0.07322     5.70096
      H    3    0.09427      0.00000     0.89595    0.00977     0.90573
      H    4    0.09319      0.00000     0.89704    0.00977     0.90681
 =======================================================================
   * Total *    0.00000      3.99909    11.80925    0.19166    16.00000

 Normal termination of Gaussian 16 at Fri Sep  2 20:01:26 2022.
