 Gaussian 16, Revision C.01,
 Gaussian 16:  EM64L-G16RevC.01  3-Jul-2019

 ----------------------------------------------------------------------
 # qcisd/aug-cc-pvtz nosymm density=current pop=(chelpg,hirshfeld,npa,d
 ipole)
 ----------------------------------------------------------------------

 -----------------
 h2co-wavefunction
 -----------------
 Symbolic Z-matrix:
 Charge =  0 Multiplicity = 1

                          Input orientation:
 ---------------------------------------------------------------------
 Center     Atomic      Atomic             Coordinates (Angstroms)
 Number     Number       Type             X           Y           Z
 ---------------------------------------------------------------------
      1          8           0        0.000000    0.000000    0.689252
      2          6           0        0.000000    0.000000   -0.526911
      3          1           0        0.000000    0.936614   -1.106620
      4          1           0        0.000000   -0.936614   -1.106620
 ---------------------------------------------------------------------

 SCF Done:  E(RHF) =  -113.912700461     A.U. after   11 cycles
 E2 =    -0.4036903741D+00 EUMP2 =    -0.11431639083463D+03

 Alpha  occ. eigenvalues --  -20.57963 -11.34457  -1.40026  -0.87318  -0.69337
 Alpha  occ. eigenvalues --   -0.64987  -0.53304  -0.44520
 Alpha virt. eigenvalues --    0.02608   0.04156   0.06176   0.07651   0.12740
 Alpha virt. eigenvalues --    0.13272   0.13356   0.17443   0.19790   0.21200
 Alpha virt. eigenvalues --    0.21684   0.25376   0.25585   0.28085   0.31981

 Mulliken charges:
               1
     1  O   -0.417676
     2  C   -0.484979
     3  H    0.451328
     4  H    0.451328
 Sum of Mulliken charges =  -0.00000

 Dipole moment (field-independent basis, Debye):
    X=             -0.0000    Y=              0.0000    Z=             -2.4832  Tot=              2.4832
 Quadrupole moment (field-independent basis, Debye-Ang):
   XX=            -11.7671   YY=            -11.6227   ZZ=            -12.2685
   XY=              0.0000   XZ=             -0.0000   YZ=              0.0000

 ESP charges:
               1
     1  O   -0.425931
     2  C    0.427692
     3  H   -0.000881
     4  H   -0.000881
 Sum of ESP charges =   0.00000

 Summary of Natural Population Analysis:

                                       Natural Population
                Natural  -----------------------------------------------
    Atom  No    Charge         Core      Valence    Rydberg      Total
 -----------------------------------------------------------------------
      O    1   -0.48700      1.99962     6.38912    0.09826     8.48700
      C    2    0.29593      1.99948     3.63179    0.07279     5.70407
      H    3    0.09553      0.00000     0.89476    0.00970     0.90447
      H    4    0.09553      0.00000     0.89476    0.00970     0.90447
 =======================================================================
   * Total *   -0.00000      3.99910    11.81044    0.19045    16.00000

 Normal termination of Gaussian 16 at Fri Sep  2 18:27:17 2022.
