 Gaussian 16, Revision C.01,
 Gaussian 16:  EM64L-G16RevC.01  3-Jul-2019

 ----------------------------------------------------------------------
 # qcisd/aug-cc-pvtz nosymm density=current pop=(chelpg,hirshfeld,npa,d
 ipole)
 ----------------------------------------------------------------------

 -----------------
 h2co-wavefunction
 -----------------
 Symbolic Z-matrix:
 Charge =  0 Multiplicity = 1

                          Input orientation:
 ---------------------------------------------------------------------
 Center     Atomic      Atomic             Coordinates (Angstroms)
 Number     Number       Type             X           Y           Z
 ---------------------------------------------------------------------
      1          8           0        0.000000    0.000000    0.679252
      2          6           0       -0.010000    0.000000   -0.526911
      3          1           0        0.000000    0.936614   -1.106620
      4          1           0        0.000000   -0.936614   -1.106620
 ---------------------------------------------------------------------

 SCF Done:  E(RHF) =  -113.913784934     A.U. after   11 cycles
 E2 =    -0.4025295361D+00 EUMP2 =    -0.11431631446990D+03

 Alpha  occ. eigenvalues --  -20.57890 -11.34243  -1.40665  -0.87135  -0.69532
 Alpha  occ. eigenvalues --   -0.65244  -0.53717  -0.44380
 Alpha virt. eigenvalues --    0.02626   0.04168   0.06239   0.07646   0.12924
 Alpha virt. eigenvalues --    0.13296   0.13346   0.17433   0.19818   0.21168
 Alpha virt. eigenvalues --    0.21717   0.25395   0.25610   0.28134   0.32047

 Mulliken charges:
               1
     1  O   -0.417446
     2  C   -0.484027
     3  H    0.450737
     4  H    0.450737
 Sum of Mulliken charges =  -0.00000

 Dipole moment (field-independent basis, Debye):
    X=             -0.0068    Y=             -0.0000    Z=             -2.4419  Tot=              2.4420
 Quadrupole moment (field-independent basis, Debye-Ang):
   XX=            -11.7378   YY=            -11.6218   ZZ=            -12.2710
   XY=              0.0000   XZ=             -0.0023   YZ=              0.0000

 ESP charges:
               1
     1  O   -0.330698
     2  C    0.141769
     3  H    0.094464
     4  H    0.094464
 Sum of ESP charges =  -0.00000

 Summary of Natural Population Analysis:

                                       Natural Population
                Natural  -----------------------------------------------
    Atom  No    Charge         Core      Valence    Rydberg      Total
 -----------------------------------------------------------------------
      O    1   -0.48597      1.99960     6.38751    0.09886     8.48597
      C    2    0.29974      1.99948     3.62770    0.07308     5.70026
      H    3    0.09312      0.00000     0.89711    0.00978     0.90688
      H    4    0.09312      0.00000     0.89711    0.00978     0.90688
 =======================================================================
   * Total *   -0.00000      3.99909    11.80942    0.19149    16.00000

 Normal termination of Gaussian 16 at Fri Sep  2 18:43:37 2022.
