 Gaussian 16, Revision C.01,
 Gaussian 16:  EM64L-G16RevC.01  3-Jul-2019

 ----------------------------------------------------------------------
 # qcisd/aug-cc-pvtz nosymm density=current pop=(chelpg,hirshfeld,npa,d
 ipole)
 ----------------------------------------------------------------------

 ------------------
 cl2cs-wavefunction
 ------------------
 Symbolic Z-matrix:
 Charge =  0 Multiplicity = 1

                          Input orientation:
 ---------------------------------------------------------------------
 Center     Atomic      Atomic             Coordinates (Angstroms)
 Number     Number       Type             X           Y           Z
 ---------------------------------------------------------------------
      1          6           0        0.000000    0.000000   -0.522914
      2         17           0        0.000000   -1.430735   -1.500900
      3         17           0        0.000000    1.430735   -1.500900
      4         16           0        0.000000    0.000000    1.081815
 ---------------------------------------------------------------------

 SCF Done:  E(RHF) =  -1354.42602442     A.U. after   12 cycles
 E2 =    -0.7243740109D+00 EUMP2 =    -0.13551503984325D+04

 Alpha  occ. eigenvalues -- -104.88760-104.88760 -91.97803 -11.44947 -10.61161
 Alpha  occ. eigenvalues --  -10.61160  -8.98098  -8.07837  -8.07837  -8.07627
 Alpha  occ. eigenvalues --   -8.07627  -8.07609  -8.07609  -6.66177  -6.66076
 Alpha  occ. eigenvalues --   -6.65927  -1.24302  -1.13392  -1.03990  -0.77141
 Alpha  occ. eigenvalues --   -0.64464  -0.60874  -0.58609  -0.50420  -0.49587
 Alpha  occ. eigenvalues --   -0.47765  -0.40764  -0.38099
 Alpha virt. eigenvalues --    0.01760   0.04856   0.06332   0.06897   0.10063
 Alpha virt. eigenvalues --    0.10090   0.10371   0.11213   0.11750   0.12854
 Alpha virt. eigenvalues --    0.15154   0.15353   0.16225   0.16375   0.16490

 Mulliken charges:
               1
     1  C    0.005074
     2  Cl  -0.015678
     3  Cl  -0.015678
     4  S    0.026283
 Sum of Mulliken charges =  -0.00000

 Dipole moment (field-independent basis, Debye):
    X=             -0.0000    Y=             -0.0000    Z=             -0.4351  Tot=              0.4351
 Quadrupole moment (field-independent basis, Debye-Ang):
   XX=            -43.1530   YY=            -43.2924   ZZ=            -42.5374
   XY=              0.0000   XZ=             -0.0000   YZ=              0.0000

 ESP charges:
               1
     1  C    0.127186
     2  Cl  -0.021975
     3  Cl  -0.021975
     4  S   -0.083236
 Sum of ESP charges =  -0.00000

 Summary of Natural Population Analysis:

                                       Natural Population
                Natural  -----------------------------------------------
    Atom  No    Charge         Core      Valence    Rydberg      Total
 -----------------------------------------------------------------------
      C    1   -0.35552      1.99947     4.20771    0.14834     6.35552
     Cl    2    0.08404      9.99912     6.77749    0.13935    16.91596
     Cl    3    0.08404      9.99912     6.77749    0.13935    16.91596
      S    4    0.18744      9.99794     5.68802    0.12660    15.81256
 =======================================================================
   * Total *    0.00000     31.99565    23.45071    0.55364    56.00000

 Normal termination of Gaussian 16 at Sun Sep  4 06:46:03 2022.
