 Gaussian 16, Revision C.01,
 Gaussian 16:  EM64L-G16RevC.01  3-Jul-2019

 ----------------------------------------------------------------------
 # qcisd/aug-cc-pvtz nosymm density=current pop=(chelpg,hirshfeld,npa,d
 ipole)
 ----------------------------------------------------------------------

 ------------------
 cl2cs-wavefunction
 ------------------
 Symbolic Z-matrix:
 Charge =  0 Multiplicity = 1

                          Input orientation:
 ---------------------------------------------------------------------
 Center     Atomic      Atomic             Coordinates (Angstroms)
 Number     Number       Type             X           Y           Z
 ---------------------------------------------------------------------
      1          6           0        0.000000    0.000000   -0.512914
      2         17           0        0.000000   -1.430735   -1.500900
      3         17           0        0.000000    1.430735   -1.500900
      4         16           0        0.000000    0.000000    1.081815
 ---------------------------------------------------------------------

 SCF Done:  E(RHF) =  -1354.42606963     A.U. after   12 cycles
 E2 =    -0.7241997841D+00 EUMP2 =    -0.13551502694172D+04

 Alpha  occ. eigenvalues -- -104.88651-104.88651 -91.97883 -11.44885 -10.61044
 Alpha  occ. eigenvalues --  -10.61043  -8.98217  -8.07719  -8.07719  -8.07510
 Alpha  occ. eigenvalues --   -8.07510  -8.07493  -8.07493  -6.66300  -6.66194
 Alpha  occ. eigenvalues --   -6.66044  -1.24118  -1.13177  -1.04373  -0.76998
 Alpha  occ. eigenvalues --   -0.64306  -0.60893  -0.58517  -0.50479  -0.49480
 Alpha  occ. eigenvalues --   -0.47605  -0.41004  -0.38205
 Alpha virt. eigenvalues --    0.01830   0.04854   0.06315   0.06922   0.10024
 Alpha virt. eigenvalues --    0.10042   0.10368   0.11246   0.11746   0.12881
 Alpha virt. eigenvalues --    0.15152   0.15301   0.16205   0.16368   0.16509

 Mulliken charges:
               1
     1  C    0.007161
     2  Cl  -0.020262
     3  Cl  -0.020262
     4  S    0.033364
 Sum of Mulliken charges =  -0.00000

 Dipole moment (field-independent basis, Debye):
    X=              0.0000    Y=              0.0000    Z=             -0.3499  Tot=              0.3499
 Quadrupole moment (field-independent basis, Debye-Ang):
   XX=            -43.1373   YY=            -43.3736   ZZ=            -42.5490
   XY=             -0.0000   XZ=             -0.0000   YZ=              0.0000

 ESP charges:
               1
     1  C    0.127970
     2  Cl  -0.025405
     3  Cl  -0.025405
     4  S   -0.077160
 Sum of ESP charges =   0.00000

 Summary of Natural Population Analysis:

                                       Natural Population
                Natural  -----------------------------------------------
    Atom  No    Charge         Core      Valence    Rydberg      Total
 -----------------------------------------------------------------------
      C    1   -0.35615      1.99944     4.20821    0.14849     6.35615
     Cl    2    0.07934      9.99914     6.78235    0.13917    16.92066
     Cl    3    0.07934      9.99914     6.78235    0.13917    16.92066
      S    4    0.19746      9.99788     5.67766    0.12700    15.80254
 =======================================================================
   * Total *   -0.00000     31.99560    23.45056    0.55384    56.00000

 Normal termination of Gaussian 16 at Sun Sep  4 09:04:56 2022.
