 Gaussian 16, Revision C.01,
 Gaussian 16:  EM64L-G16RevC.01  3-Jul-2019

 ----------------------------------------------------------------------
 # qcisd/aug-cc-pvtz nosymm density=current pop=(chelpg,hirshfeld,npa,d
 ipole)
 ----------------------------------------------------------------------

 ------------------
 cl2cs-wavefunction
 ------------------
 Symbolic Z-matrix:
 Charge =  0 Multiplicity = 1

                          Input orientation:
 ---------------------------------------------------------------------
 Center     Atomic      Atomic             Coordinates (Angstroms)
 Number     Number       Type             X           Y           Z
 ---------------------------------------------------------------------
      1          6           0        0.000000    0.000000   -0.532914
      2         17           0        0.000000   -1.430735   -1.500900
      3         17           0        0.000000    1.430735   -1.500900
      4         16           0        0.000000    0.000000    1.081815
 ---------------------------------------------------------------------

 SCF Done:  E(RHF) =  -1354.42579027     A.U. after   12 cycles
 E2 =    -0.7245568268D+00 EUMP2 =    -0.13551503470959D+04

 Alpha  occ. eigenvalues -- -104.88869-104.88869 -91.97721 -11.45008 -10.61277
 Alpha  occ. eigenvalues --  -10.61276  -8.97978  -8.07955  -8.07954  -8.07743
 Alpha  occ. eigenvalues --   -8.07743  -8.07725  -8.07725  -6.66053  -6.65958
 Alpha  occ. eigenvalues --   -6.65808  -1.24492  -1.13609  -1.03606  -0.77282
 Alpha  occ. eigenvalues --   -0.64627  -0.60860  -0.58705  -0.50353  -0.49693
 Alpha  occ. eigenvalues --   -0.47925  -0.40523  -0.37991
 Alpha virt. eigenvalues --    0.01691   0.04855   0.06350   0.06872   0.10082
 Alpha virt. eigenvalues --    0.10154   0.10372   0.11180   0.11755   0.12827
 Alpha virt. eigenvalues --    0.15156   0.15404   0.16247   0.16381   0.16471

 Mulliken charges:
               1
     1  C    0.003034
     2  Cl  -0.011119
     3  Cl  -0.011119
     4  S    0.019204
 Sum of Mulliken charges =  -0.00000

 Dipole moment (field-independent basis, Debye):
    X=             -0.0000    Y=              0.0000    Z=             -0.5194  Tot=              0.5194
 Quadrupole moment (field-independent basis, Debye-Ang):
   XX=            -43.1686   YY=            -43.2116   ZZ=            -42.5258
   XY=              0.0000   XZ=             -0.0000   YZ=             -0.0000

 ESP charges:
               1
     1  C    0.126386
     2  Cl  -0.018573
     3  Cl  -0.018573
     4  S   -0.089240
 Sum of ESP charges =   0.00000

 Summary of Natural Population Analysis:

                                       Natural Population
                Natural  -----------------------------------------------
    Atom  No    Charge         Core      Valence    Rydberg      Total
 -----------------------------------------------------------------------
      C    1   -0.35486      1.99949     4.20717    0.14821     6.35486
     Cl    2    0.08869      9.99911     6.77265    0.13954    16.91131
     Cl    3    0.08869      9.99911     6.77265    0.13954    16.91131
      S    4    0.17747      9.99799     5.69832    0.12622    15.82253
 =======================================================================
   * Total *    0.00000     31.99570    23.45080    0.55350    56.00000

 Normal termination of Gaussian 16 at Sun Sep  4 09:33:28 2022.
