 Gaussian 16, Revision C.01,
 Gaussian 16:  EM64L-G16RevC.01  3-Jul-2019

 ----------------------------------------------------------------------
 # qcisd/aug-cc-pvtz nosymm density=current pop=(chelpg,hirshfeld,npa,d
 ipole)
 ----------------------------------------------------------------------

 ------------------
 cl2cs-wavefunction
 ------------------
 Symbolic Z-matrix:
 Charge =  0 Multiplicity = 1

                          Input orientation:
 ---------------------------------------------------------------------
 Center     Atomic      Atomic             Coordinates (Angstroms)
 Number     Number       Type             X           Y           Z
 ---------------------------------------------------------------------
      1          6           0        0.000000    0.000000   -0.522914
      2         17           0        0.000000   -1.430735   -1.510900
      3         17           0        0.000000    1.430735   -1.500900
      4         16           0        0.000000    0.000000    1.081815
 ---------------------------------------------------------------------

 SCF Done:  E(RHF) =  -1354.42590963     A.U. after   12 cycles
 E2 =    -0.7244661427D+00 EUMP2 =    -0.13551503757760D+04

 Alpha  occ. eigenvalues -- -104.88762-104.88734 -91.97864 -11.45001 -10.61163
 Alpha  occ. eigenvalues --  -10.61122  -8.98155  -8.07839  -8.07798  -8.07629
 Alpha  occ. eigenvalues --   -8.07611  -8.07589  -8.07572  -6.66233  -6.66133
 Alpha  occ. eigenvalues --   -6.65984  -1.24196  -1.13312  -1.04033  -0.77117
 Alpha  occ. eigenvalues --   -0.64375  -0.60869  -0.58544  -0.50442  -0.49558
 Alpha  occ. eigenvalues --   -0.47714  -0.40812  -0.38141
 Alpha virt. eigenvalues --    0.01743   0.04852   0.06327   0.06903   0.10027
 Alpha virt. eigenvalues --    0.10079   0.10363   0.11223   0.11751   0.12863
 Alpha virt. eigenvalues --    0.15146   0.15325   0.16187   0.16370   0.16499

 Mulliken charges:
               1
     1  C    0.006428
     2  Cl  -0.019443
     3  Cl  -0.014958
     4  S    0.027973
 Sum of Mulliken charges =  -0.00000

 Dipole moment (field-independent basis, Debye):
    X=             -0.0000    Y=              0.0181    Z=             -0.4135  Tot=              0.4139
 Quadrupole moment (field-independent basis, Debye-Ang):
   XX=            -43.1616   YY=            -43.3246   ZZ=            -42.5250
   XY=              0.0000   XZ=              0.0000   YZ=             -0.0116

 ESP charges:
               1
     1  C    0.126150
     2  Cl  -0.023790
     3  Cl  -0.021163
     4  S   -0.081197
 Sum of ESP charges =   0.00000

 Summary of Natural Population Analysis:

                                       Natural Population
                Natural  -----------------------------------------------
    Atom  No    Charge         Core      Valence    Rydberg      Total
 -----------------------------------------------------------------------
      C    1   -0.35389      1.99947     4.20632    0.14810     6.35389
     Cl    2    0.08075      9.99913     6.78094    0.13917    16.91925
     Cl    3    0.08404      9.99912     6.77741    0.13943    16.91596
      S    4    0.18910      9.99793     5.68637    0.12660    15.81090
 =======================================================================
   * Total *   -0.00000     31.99566    23.45105    0.55330    56.00000

 Normal termination of Gaussian 16 at Sun Sep  4 12:21:55 2022.
