 Gaussian 16, Revision C.01,
 Gaussian 16:  EM64L-G16RevC.01  3-Jul-2019

 ----------------------------------------------------------------------
 # qcisd/aug-cc-pvtz nosymm density=current pop=(chelpg,hirshfeld,npa,d
 ipole)
 ----------------------------------------------------------------------

 ------------------
 cl2cs-wavefunction
 ------------------
 Symbolic Z-matrix:
 Charge =  0 Multiplicity = 1

                          Input orientation:
 ---------------------------------------------------------------------
 Center     Atomic      Atomic             Coordinates (Angstroms)
 Number     Number       Type             X           Y           Z
 ---------------------------------------------------------------------
      1          6           0        0.000000    0.000000   -0.522914
      2         17           0        0.000000   -1.430735   -1.500900
      3         17           0        0.000000    1.430735   -1.490900
      4         16           0        0.000000    0.000000    1.081815
 ---------------------------------------------------------------------

 SCF Done:  E(RHF) =  -1354.42610032     A.U. after   12 cycles
 E2 =    -0.7242861084D+00 EUMP2 =    -0.13551503864241D+04

 Alpha  occ. eigenvalues -- -104.88786-104.88758 -91.97743 -11.44893 -10.61197
 Alpha  occ. eigenvalues --  -10.61158  -8.98041  -8.07875  -8.07835  -8.07664
 Alpha  occ. eigenvalues --   -8.07646  -8.07625  -8.07607  -6.66120  -6.66019
 Alpha  occ. eigenvalues --   -6.65870  -1.24409  -1.13471  -1.03948  -0.77165
 Alpha  occ. eigenvalues --   -0.64554  -0.60879  -0.58674  -0.50396  -0.49615
 Alpha  occ. eigenvalues --   -0.47816  -0.40715  -0.38056
 Alpha virt. eigenvalues --    0.01776   0.04858   0.06338   0.06892   0.10079
 Alpha virt. eigenvalues --    0.10119   0.10379   0.11203   0.11749   0.12845
 Alpha virt. eigenvalues --    0.15158   0.15383   0.16262   0.16379   0.16484

 Mulliken charges:
               1
     1  C    0.003679
     2  Cl  -0.016383
     3  Cl  -0.011892
     4  S    0.024597
 Sum of Mulliken charges =  -0.00000

 Dipole moment (field-independent basis, Debye):
    X=             -0.0000    Y=              0.0179    Z=             -0.4565  Tot=              0.4568
 Quadrupole moment (field-independent basis, Debye-Ang):
   XX=            -43.1444   YY=            -43.2603   ZZ=            -42.5505
   XY=             -0.0000   XZ=              0.0000   YZ=             -0.0107

 ESP charges:
               1
     1  C    0.128929
     2  Cl  -0.022998
     3  Cl  -0.020392
     4  S   -0.085539
 Sum of ESP charges =   0.00000

 Summary of Natural Population Analysis:

                                       Natural Population
                Natural  -----------------------------------------------
    Atom  No    Charge         Core      Valence    Rydberg      Total
 -----------------------------------------------------------------------
      C    1   -0.35714      1.99947     4.20909    0.14858     6.35714
     Cl    2    0.08405      9.99913     6.77755    0.13927    16.91595
     Cl    3    0.08732      9.99911     6.77403    0.13954    16.91268
      S    4    0.18577      9.99794     5.68969    0.12660    15.81423
 =======================================================================
   * Total *    0.00000     31.99564    23.45037    0.55399    56.00000

 Normal termination of Gaussian 16 at Sun Sep  4 14:41:52 2022.
