 Gaussian 16, Revision C.01,
 Gaussian 16:  EM64L-G16RevC.01  3-Jul-2019

 ----------------------------------------------------------------------
 # qcisd/aug-cc-pvtz nosymm density=current pop=(chelpg,hirshfeld,npa,d
 ipole)
 ----------------------------------------------------------------------

 ------------------
 cl2cs-wavefunction
 ------------------
 Symbolic Z-matrix:
 Charge =  0 Multiplicity = 1

                          Input orientation:
 ---------------------------------------------------------------------
 Center     Atomic      Atomic             Coordinates (Angstroms)
 Number     Number       Type             X           Y           Z
 ---------------------------------------------------------------------
      1          6           0        0.000000    0.000000   -0.522914
      2         17           0        0.000000   -1.430735   -1.500900
      3         17           0        0.000000    1.440735   -1.500900
      4         16           0        0.000000    0.000000    1.081815
 ---------------------------------------------------------------------

 SCF Done:  E(RHF) =  -1354.42588246     A.U. after   12 cycles
 E2 =    -0.7244551547D+00 EUMP2 =    -0.13551503376108D+04

 Alpha  occ. eigenvalues -- -104.88816-104.88715 -91.97855 -11.45010 -10.61211
 Alpha  occ. eigenvalues --  -10.61098  -8.98147  -8.07888  -8.07773  -8.07678
 Alpha  occ. eigenvalues --   -8.07660  -8.07564  -8.07547  -6.66225  -6.66125
 Alpha  occ. eigenvalues --   -6.65975  -1.24127  -1.13330  -1.04010  -0.77094
 Alpha  occ. eigenvalues --   -0.64379  -0.60825  -0.58509  -0.50393  -0.49581
 Alpha  occ. eigenvalues --   -0.47788  -0.40806  -0.38124
 Alpha virt. eigenvalues --    0.01740   0.04849   0.06329   0.06898   0.10016
 Alpha virt. eigenvalues --    0.10081   0.10360   0.11208   0.11755   0.12860
 Alpha virt. eigenvalues --    0.15152   0.15308   0.16188   0.16376   0.16480

 Mulliken charges:
               1
     1  C    0.006480
     2  Cl  -0.014302
     3  Cl  -0.021072
     4  S    0.028893
 Sum of Mulliken charges =  -0.00000

 Dipole moment (field-independent basis, Debye):
    X=              0.0000    Y=             -0.0305    Z=             -0.4119  Tot=              0.4131
 Quadrupole moment (field-independent basis, Debye-Ang):
   XX=            -43.1647   YY=            -43.2954   ZZ=            -42.5575
   XY=             -0.0000   XZ=             -0.0000   YZ=              0.0498

 ESP charges:
               1
     1  C    0.125726
     2  Cl  -0.020320
     3  Cl  -0.024591
     4  S   -0.080814
 Sum of ESP charges =   0.00000

 Summary of Natural Population Analysis:

                                       Natural Population
                Natural  -----------------------------------------------
    Atom  No    Charge         Core      Valence    Rydberg      Total
 -----------------------------------------------------------------------
      C    1   -0.35349      1.99946     4.20604    0.14799     6.35349
     Cl    2    0.08535      9.99912     6.77618    0.13936    16.91465
     Cl    3    0.07926      9.99914     6.78250    0.13910    16.92074
      S    4    0.18889      9.99793     5.68648    0.12670    15.81111
 =======================================================================
   * Total *   -0.00000     31.99566    23.45120    0.55315    56.00000

 Normal termination of Gaussian 16 at Sun Sep  4 13:46:08 2022.
