 Gaussian 16, Revision C.01,
 Gaussian 16:  EM64L-G16RevC.01  3-Jul-2019

 ----------------------------------------------------------------------
 # qcisd/aug-cc-pvtz nosymm density=current pop=(chelpg,hirshfeld,npa,d
 ipole)
 ----------------------------------------------------------------------

 ------------------
 cl2cs-wavefunction
 ------------------
 Symbolic Z-matrix:
 Charge =  0 Multiplicity = 1

                          Input orientation:
 ---------------------------------------------------------------------
 Center     Atomic      Atomic             Coordinates (Angstroms)
 Number     Number       Type             X           Y           Z
 ---------------------------------------------------------------------
      1          6           0        0.000000    0.000000   -0.522914
      2         17           0        0.000000   -1.430735   -1.500900
      3         17           0        0.000000    1.430735   -1.500900
      4         16           0        0.000000   -0.010000    1.081815
 ---------------------------------------------------------------------

 SCF Done:  E(RHF) =  -1354.42601452     A.U. after   12 cycles
 E2 =    -0.7243759534D+00 EUMP2 =    -0.13551503904705D+04

 Alpha  occ. eigenvalues -- -104.88797-104.88724 -91.97803 -11.44948 -10.61194
 Alpha  occ. eigenvalues --  -10.61126  -8.98098  -8.07871  -8.07803  -8.07661
 Alpha  occ. eigenvalues --   -8.07643  -8.07593  -8.07575  -6.66176  -6.66076
 Alpha  occ. eigenvalues --   -6.65927  -1.24302  -1.13393  -1.03989  -0.77141
 Alpha  occ. eigenvalues --   -0.64464  -0.60874  -0.58609  -0.50420  -0.49587
 Alpha  occ. eigenvalues --   -0.47765  -0.40763  -0.38098
 Alpha virt. eigenvalues --    0.01760   0.04855   0.06332   0.06897   0.10058
 Alpha virt. eigenvalues --    0.10095   0.10371   0.11213   0.11750   0.12854
 Alpha virt. eigenvalues --    0.15152   0.15355   0.16224   0.16375   0.16491

 Mulliken charges:
               1
     1  C    0.005085
     2  Cl  -0.015837
     3  Cl  -0.015519
     4  S    0.026272
 Sum of Mulliken charges =  -0.00000

 Dipole moment (field-independent basis, Debye):
    X=             -0.0000    Y=              0.0077    Z=             -0.4353  Tot=              0.4353
 Quadrupole moment (field-independent basis, Debye-Ang):
   XX=            -43.1531   YY=            -43.2922   ZZ=            -42.5377
   XY=             -0.0000   XZ=              0.0000   YZ=             -0.0439

 ESP charges:
               1
     1  C    0.127170
     2  Cl  -0.022236
     3  Cl  -0.021693
     4  S   -0.083241
 Sum of ESP charges =   0.00000

 Summary of Natural Population Analysis:

                                       Natural Population
                Natural  -----------------------------------------------
    Atom  No    Charge         Core      Valence    Rydberg      Total
 -----------------------------------------------------------------------
      C    1   -0.35551      1.99947     4.20770    0.14834     6.35551
     Cl    2    0.08324      9.99912     6.77822    0.13942    16.91676
     Cl    3    0.08484      9.99912     6.77675    0.13928    16.91516
      S    4    0.18742      9.99794     5.68804    0.12660    15.81258
 =======================================================================
   * Total *   -0.00000     31.99565    23.45071    0.55364    56.00000

 Normal termination of Gaussian 16 at Sun Sep  4 17:00:46 2022.
