 Gaussian 16, Revision C.01,
 Gaussian 16:  EM64L-G16RevC.01  3-Jul-2019

 ----------------------------------------------------------------------
 # qcisd/aug-cc-pvtz nosymm density=current pop=(chelpg,hirshfeld,npa,d
 ipole)
 ----------------------------------------------------------------------

 ------------------
 cl2cs-wavefunction
 ------------------
 Symbolic Z-matrix:
 Charge =  0 Multiplicity = 1

                          Input orientation:
 ---------------------------------------------------------------------
 Center     Atomic      Atomic             Coordinates (Angstroms)
 Number     Number       Type             X           Y           Z
 ---------------------------------------------------------------------
      1          6           0        0.000000    0.000000   -0.522914
      2         17           0        0.000000   -1.430735   -1.500900
      3         17           0        0.000000    1.430735   -1.500900
      4         16           0        0.000000    0.000000    1.091815
 ---------------------------------------------------------------------

 SCF Done:  E(RHF) =  -1354.42561486     A.U. after   12 cycles
 E2 =    -0.7247331869D+00 EUMP2 =    -0.13551503480435D+04

 Alpha  occ. eigenvalues -- -104.88846-104.88846 -91.97843 -11.45116 -10.61242
 Alpha  occ. eigenvalues --  -10.61241  -8.98092  -8.07918  -8.07918  -8.07708
 Alpha  occ. eigenvalues --   -8.07708  -8.07690  -8.07690  -6.66166  -6.66071
 Alpha  occ. eigenvalues --   -6.65922  -1.24278  -1.13449  -1.03691  -0.77234
 Alpha  occ. eigenvalues --   -0.64447  -0.60848  -0.58575  -0.50403  -0.49637
 Alpha  occ. eigenvalues --   -0.47823  -0.40619  -0.38076
 Alpha virt. eigenvalues --    0.01657   0.04850   0.06338   0.06883   0.10027
 Alpha virt. eigenvalues --    0.10118   0.10357   0.11200   0.11756   0.12844
 Alpha virt. eigenvalues --    0.15146   0.15346   0.16171   0.16372   0.16487

 Mulliken charges:
               1
     1  C    0.005772
     2  Cl  -0.014170
     3  Cl  -0.014170
     4  S    0.022568
 Sum of Mulliken charges =  -0.00000

 Dipole moment (field-independent basis, Debye):
    X=              0.0000    Y=             -0.0000    Z=             -0.4768  Tot=              0.4768
 Quadrupole moment (field-independent basis, Debye-Ang):
   XX=            -43.1856   YY=            -43.2759   ZZ=            -42.5094
   XY=              0.0000   XZ=              0.0000   YZ=              0.0000

 ESP charges:
               1
     1  C    0.123442
     2  Cl  -0.019297
     3  Cl  -0.019297
     4  S   -0.084848
 Sum of ESP charges =  -0.00000

 Summary of Natural Population Analysis:

                                       Natural Population
                Natural  -----------------------------------------------
    Atom  No    Charge         Core      Valence    Rydberg      Total
 -----------------------------------------------------------------------
      C    1   -0.35164      1.99949     4.20443    0.14773     6.35164
     Cl    2    0.08541      9.99912     6.77604    0.13943    16.91459
     Cl    3    0.08541      9.99912     6.77604    0.13943    16.91459
      S    4    0.18083      9.99798     5.69498    0.12621    15.81917
 =======================================================================
   * Total *    0.00000     31.99571    23.45149    0.55280    56.00000

 Normal termination of Gaussian 16 at Sun Sep  4 17:28:08 2022.
