 Gaussian 16, Revision C.01,
 Gaussian 16:  EM64L-G16RevC.01  3-Jul-2019

 ----------------------------------------------------------------------
 # qcisd/aug-cc-pvtz nosymm density=current pop=(chelpg,hirshfeld,npa,d
 ipole)
 ----------------------------------------------------------------------

 ------------------
 cl2cs-wavefunction
 ------------------
 Symbolic Z-matrix:
 Charge =  0 Multiplicity = 1

                          Input orientation:
 ---------------------------------------------------------------------
 Center     Atomic      Atomic             Coordinates (Angstroms)
 Number     Number       Type             X           Y           Z
 ---------------------------------------------------------------------
      1          6           0        0.000000   -0.010000   -0.522914
      2         17           0        0.000000   -1.430735   -1.500900
      3         17           0        0.000000    1.430735   -1.500900
      4         16           0        0.000000    0.000000    1.081815
 ---------------------------------------------------------------------

 SCF Done:  E(RHF) =  -1354.42596986     A.U. after   13 cycles
 E2 =    -0.7243832711D+00 EUMP2 =    -0.13551503531283D+04

 Alpha  occ. eigenvalues -- -104.88897-104.88623 -91.97804 -11.44948 -10.61308
 Alpha  occ. eigenvalues --  -10.61012  -8.98098  -8.07987  -8.07775  -8.07756
 Alpha  occ. eigenvalues --   -8.07687  -8.07479  -8.07462  -6.66177  -6.66077
 Alpha  occ. eigenvalues --   -6.65927  -1.24313  -1.13386  -1.03989  -0.77145
 Alpha  occ. eigenvalues --   -0.64464  -0.60877  -0.58614  -0.50418  -0.49583
 Alpha  occ. eigenvalues --   -0.47762  -0.40763  -0.38098
 Alpha virt. eigenvalues --    0.01759   0.04855   0.06332   0.06898   0.10049
 Alpha virt. eigenvalues --    0.10099   0.10370   0.11214   0.11749   0.12855
 Alpha virt. eigenvalues --    0.15153   0.15352   0.16222   0.16374   0.16492

 Mulliken charges:
               1
     1  C    0.004981
     2  Cl  -0.008659
     3  Cl  -0.022631
     4  S    0.026310
 Sum of Mulliken charges =  -0.00000

 Dipole moment (field-independent basis, Debye):
    X=              0.0000    Y=             -0.0686    Z=             -0.4352  Tot=              0.4405
 Quadrupole moment (field-independent basis, Debye-Ang):
   XX=            -43.1530   YY=            -43.2923   ZZ=            -42.5375
   XY=              0.0000   XZ=             -0.0000   YZ=              0.1477

 ESP charges:
               1
     1  C    0.127151
     2  Cl  -0.017416
     3  Cl  -0.026507
     4  S   -0.083227
 Sum of ESP charges =  -0.00000

 Summary of Natural Population Analysis:

                                       Natural Population
                Natural  -----------------------------------------------
    Atom  No    Charge         Core      Valence    Rydberg      Total
 -----------------------------------------------------------------------
      C    1   -0.35550      1.99947     4.20769    0.14835     6.35550
     Cl    2    0.09095      9.99910     6.77039    0.13956    16.90905
     Cl    3    0.07712      9.99914     6.78458    0.13916    16.92288
      S    4    0.18744      9.99794     5.68803    0.12659    15.81256
 =======================================================================
   * Total *    0.00000     31.99565    23.45069    0.55366    56.00000

 Normal termination of Gaussian 16 at Sun Sep  4 08:36:53 2022.
