 Gaussian 16, Revision C.01,
 Gaussian 16:  EM64L-G16RevC.01  3-Jul-2019

 ----------------------------------------------------------------------
 # qcisd/aug-cc-pvtz nosymm density=current pop=(chelpg,hirshfeld,npa,d
 ipole)
 ----------------------------------------------------------------------

 ------------------
 cl2cs-wavefunction
 ------------------
 Symbolic Z-matrix:
 Charge =  0 Multiplicity = 1

                          Input orientation:
 ---------------------------------------------------------------------
 Center     Atomic      Atomic             Coordinates (Angstroms)
 Number     Number       Type             X           Y           Z
 ---------------------------------------------------------------------
      1          6           0        0.000000    0.000000   -0.522914
      2         17           0        0.000000   -1.430735   -1.500900
      3         17           0        0.000000    1.430735   -1.500900
      4         16           0        0.000000    0.000000    1.071815
 ---------------------------------------------------------------------

 SCF Done:  E(RHF) =  -1354.42627534     A.U. after   12 cycles
 E2 =    -0.7240160630D+00 EUMP2 =    -0.13551502913997D+04

 Alpha  occ. eigenvalues -- -104.88674-104.88674 -91.97761 -11.44777 -10.61079
 Alpha  occ. eigenvalues --  -10.61078  -8.98103  -8.07756  -8.07756  -8.07545
 Alpha  occ. eigenvalues --   -8.07545  -8.07528  -8.07528  -6.66186  -6.66080
 Alpha  occ. eigenvalues --   -6.65930  -1.24330  -1.13336  -1.04289  -0.77047
 Alpha  occ. eigenvalues --   -0.64485  -0.60901  -0.58646  -0.50435  -0.49537
 Alpha  occ. eigenvalues --   -0.47707  -0.40908  -0.38120
 Alpha virt. eigenvalues --    0.01863   0.04860   0.06327   0.06911   0.10061
 Alpha virt. eigenvalues --    0.10097   0.10385   0.11227   0.11744   0.12864
 Alpha virt. eigenvalues --    0.15163   0.15359   0.16280   0.16377   0.16493

 Mulliken charges:
               1
     1  C    0.004402
     2  Cl  -0.017187
     3  Cl  -0.017187
     4  S    0.029972
 Sum of Mulliken charges =  -0.00000

 Dipole moment (field-independent basis, Debye):
    X=              0.0000    Y=              0.0000    Z=             -0.3931  Tot=              0.3931
 Quadrupole moment (field-independent basis, Debye-Ang):
   XX=            -43.1201   YY=            -43.3093   ZZ=            -42.5662
   XY=             -0.0000   XZ=             -0.0000   YZ=             -0.0000

 ESP charges:
               1
     1  C    0.131872
     2  Cl  -0.024964
     3  Cl  -0.024964
     4  S   -0.081945
 Sum of ESP charges =   0.00000

 Summary of Natural Population Analysis:

                                       Natural Population
                Natural  -----------------------------------------------
    Atom  No    Charge         Core      Valence    Rydberg      Total
 -----------------------------------------------------------------------
      C    1   -0.35942      1.99945     4.21100    0.14897     6.35942
     Cl    2    0.08263      9.99913     6.77897    0.13927    16.91737
     Cl    3    0.08263      9.99913     6.77897    0.13927    16.91737
      S    4    0.19416      9.99789     5.68096    0.12700    15.80584
 =======================================================================
   * Total *    0.00000     31.99559    23.44990    0.55451    56.00000

 Normal termination of Gaussian 16 at Sun Sep  4 17:55:21 2022.
