 Gaussian 16, Revision C.01,
 Gaussian 16:  EM64L-G16RevC.01  3-Jul-2019

 ----------------------------------------------------------------------
 # qcisd/aug-cc-pvtz nosymm density=current pop=(chelpg,hirshfeld,npa,d
 ipole)
 ----------------------------------------------------------------------

 ------------------
 cl2cs-wavefunction
 ------------------
 Symbolic Z-matrix:
 Charge =  0 Multiplicity = 1

                          Input orientation:
 ---------------------------------------------------------------------
 Center     Atomic      Atomic             Coordinates (Angstroms)
 Number     Number       Type             X           Y           Z
 ---------------------------------------------------------------------
      1          6           0        0.010000    0.000000   -0.522914
      2         17           0        0.000000   -1.430735   -1.500900
      3         17           0        0.000000    1.430735   -1.500900
      4         16           0        0.000000    0.000000    1.081815
 ---------------------------------------------------------------------

 SCF Done:  E(RHF) =  -1354.42600309     A.U. after   12 cycles
 E2 =    -0.7243788361D+00 EUMP2 =    -0.13551503819296D+04

 Alpha  occ. eigenvalues -- -104.88760-104.88760 -91.97804 -11.44948 -10.61161
 Alpha  occ. eigenvalues --  -10.61159  -8.98099  -8.07837  -8.07837  -8.07627
 Alpha  occ. eigenvalues --   -8.07626  -8.07609  -8.07609  -6.66177  -6.66077
 Alpha  occ. eigenvalues --   -6.65927  -1.24301  -1.13391  -1.03989  -0.77141
 Alpha  occ. eigenvalues --   -0.64463  -0.60874  -0.58608  -0.50420  -0.49587
 Alpha  occ. eigenvalues --   -0.47765  -0.40763  -0.38099
 Alpha virt. eigenvalues --    0.01757   0.04856   0.06332   0.06897   0.10062
 Alpha virt. eigenvalues --    0.10090   0.10370   0.11214   0.11750   0.12853
 Alpha virt. eigenvalues --    0.15155   0.15353   0.16217   0.16384   0.16490

 Mulliken charges:
               1
     1  C    0.005039
     2  Cl  -0.015692
     3  Cl  -0.015692
     4  S    0.026345
 Sum of Mulliken charges =  -0.00000

 Dipole moment (field-independent basis, Debye):
    X=             -0.0054    Y=             -0.0000    Z=             -0.4349  Tot=              0.4349
 Quadrupole moment (field-independent basis, Debye-Ang):
   XX=            -43.1528   YY=            -43.2930   ZZ=            -42.5378
   XY=              0.0000   XZ=             -0.0039   YZ=             -0.0000

 ESP charges:
               1
     1  C   -0.112016
     2  Cl   0.052329
     3  Cl   0.052329
     4  S    0.007358
 Sum of ESP charges =  -0.00000

 Summary of Natural Population Analysis:

                                       Natural Population
                Natural  -----------------------------------------------
    Atom  No    Charge         Core      Valence    Rydberg      Total
 -----------------------------------------------------------------------
      C    1   -0.35549      1.99947     4.20769    0.14834     6.35549
     Cl    2    0.08402      9.99912     6.77751    0.13935    16.91598
     Cl    3    0.08402      9.99912     6.77751    0.13935    16.91598
      S    4    0.18745      9.99794     5.68801    0.12660    15.81255
 =======================================================================
   * Total *   -0.00000     31.99565    23.45072    0.55363    56.00000

 Normal termination of Gaussian 16 at Sun Sep  4 07:13:30 2022.
