 Gaussian 16, Revision C.01,
 Gaussian 16:  EM64L-G16RevC.01  3-Jul-2019

 ----------------------------------------------------------------------
 # qcisd/aug-cc-pvtz nosymm density=current pop=(chelpg,hirshfeld,npa,d
 ipole)
 ----------------------------------------------------------------------

 ------------------
 cl2cs-wavefunction
 ------------------
 Symbolic Z-matrix:
 Charge =  0 Multiplicity = 1

                          Input orientation:
 ---------------------------------------------------------------------
 Center     Atomic      Atomic             Coordinates (Angstroms)
 Number     Number       Type             X           Y           Z
 ---------------------------------------------------------------------
      1          6           0        0.000000    0.000000   -0.522914
      2         17           0        0.000000   -1.430735   -1.500900
      3         17           0        0.000000    1.420735   -1.500900
      4         16           0        0.000000    0.000000    1.081815
 ---------------------------------------------------------------------

 SCF Done:  E(RHF) =  -1354.42610052     A.U. after   12 cycles
 E2 =    -0.7242996183D+00 EUMP2 =    -0.13551504001395D+04

 Alpha  occ. eigenvalues -- -104.88804-104.88704 -91.97752 -11.44884 -10.61223
 Alpha  occ. eigenvalues --  -10.61109  -8.98049  -8.07901  -8.07786  -8.07689
 Alpha  occ. eigenvalues --   -8.07671  -8.07576  -8.07558  -6.66128  -6.66027
 Alpha  occ. eigenvalues --   -6.65878  -1.24484  -1.13452  -1.03971  -0.77189
 Alpha  occ. eigenvalues --   -0.64550  -0.60925  -0.58712  -0.50446  -0.49591
 Alpha  occ. eigenvalues --   -0.47740  -0.40721  -0.38073
 Alpha virt. eigenvalues --    0.01780   0.04861   0.06336   0.06896   0.10086
 Alpha virt. eigenvalues --    0.10117   0.10382   0.11219   0.11745   0.12849
 Alpha virt. eigenvalues --    0.15155   0.15394   0.16265   0.16374   0.16503

 Mulliken charges:
               1
     1  C    0.003532
     2  Cl  -0.017046
     3  Cl  -0.010163
     4  S    0.023678
 Sum of Mulliken charges =  -0.00000

 Dipole moment (field-independent basis, Debye):
    X=              0.0000    Y=              0.0303    Z=             -0.4584  Tot=              0.4594
 Quadrupole moment (field-independent basis, Debye-Ang):
   XX=            -43.1412   YY=            -43.2904   ZZ=            -42.5171
   XY=             -0.0000   XZ=             -0.0000   YZ=             -0.0496

 ESP charges:
               1
     1  C    0.129210
     2  Cl  -0.023804
     3  Cl  -0.019530
     4  S   -0.085876
 Sum of ESP charges =   0.00000

 Summary of Natural Population Analysis:

                                       Natural Population
                Natural  -----------------------------------------------
    Atom  No    Charge         Core      Valence    Rydberg      Total
 -----------------------------------------------------------------------
      C    1   -0.35755      1.99947     4.20938    0.14870     6.35755
     Cl    2    0.08271      9.99913     6.77882    0.13934    16.91729
     Cl    3    0.08885      9.99911     6.77243    0.13962    16.91115
      S    4    0.18599      9.99794     5.68958    0.12649    15.81401
 =======================================================================
   * Total *   -0.00000     31.99564    23.45021    0.55415    56.00000

 Normal termination of Gaussian 16 at Sun Sep  4 14:14:35 2022.
