 Gaussian 09, Revision B.01,
 Gaussian 09:  EM64L-G09RevB.01 12-Aug-2010

 --------------------------------------------
 #opt qcisd/aug-cc-pvtz density=current nosym
 --------------------------------------------

 ----
 f2co
 ----
 Symbolic Z-matrix:
 Charge =  0 Multiplicity = 1

 SCF Done:  E(RHF) =  -311.704122540     A.U. after   11 cycles
 E2 =    -0.9124099642D+00 EUMP2 =    -0.31261653250456D+03
 SCF Done:  E(RHF) =  -311.739883340     A.U. after   11 cycles
 E2 =    -0.8968460941D+00 EUMP2 =    -0.31263672943432D+03
 SCF Done:  E(RHF) =  -311.741537772     A.U. after    9 cycles
 E2 =    -0.8955252608D+00 EUMP2 =    -0.31263706303327D+03
 SCF Done:  E(RHF) =  -311.741238280     A.U. after    7 cycles
 E2 =    -0.8959082310D+00 EUMP2 =    -0.31263714651124D+03
 SCF Done:  E(RHF) =  -311.741239690     A.U. after    7 cycles
 E2 =    -0.8959039763D+00 EUMP2 =    -0.31263714366663D+03
 Optimization completed.
    -- Stationary point found.

                          Input orientation:
 ---------------------------------------------------------------------
 Center     Atomic      Atomic             Coordinates (Angstroms)
 Number     Number       Type             X           Y           Z
 ---------------------------------------------------------------------
      1          8           0        0.000000    0.000000    0.679927
      2          6           0        0.000000    0.000000   -0.492216
      3          9           0        0.000000   -1.058878   -1.264305
      4          9           0        0.000000    1.058878   -1.264305
 ---------------------------------------------------------------------

 Alpha  occ. eigenvalues --  -26.39320 -26.39317 -20.62020 -11.53392  -1.76377
 Alpha  occ. eigenvalues --   -1.68672  -1.47833  -0.95857  -0.86621  -0.81835
 Alpha  occ. eigenvalues --   -0.80635  -0.72758  -0.70590  -0.70517  -0.57651
 Alpha  occ. eigenvalues --   -0.55832
 Alpha virt. eigenvalues --    0.05517   0.07195   0.07794   0.07908   0.15335
 Alpha virt. eigenvalues --    0.17098   0.17196   0.19387   0.19972   0.21580
 Alpha virt. eigenvalues --    0.24816   0.24867   0.26163   0.26400   0.28488

 Mulliken atomic charges:
              1
     1  O   -0.287521
     2  C    0.610166
     3  F   -0.161322
     4  F   -0.161322
 Sum of Mulliken atomic charges =   0.00000

 Dipole moment (field-independent basis, Debye):
    X=              0.0000    Y=              0.0000    Z=             -1.0334  Tot=              1.0334
 Quadrupole moment (field-independent basis, Debye-Ang):
   XX=            -18.9049   YY=            -21.3170   ZZ=            -21.9184
   XY=              0.0000   XZ=              0.0000   YZ=              0.0000

 Normal termination of Gaussian 09 at Tue Nov 16 19:16:10 2021.
