 Gaussian 09, Revision B.01,
 Gaussian 09:  EM64L-G09RevB.01 12-Aug-2010

 -----------------------------------------------------
 # qcisd/aug-cc-pvtz nosymm density=current output=wfn
 -----------------------------------------------------

 ------------------
 br2cs-wavefunction
 ------------------
 Symbolic Z-matrix:
 Charge =  0 Multiplicity = 1

                          Input orientation:
 ---------------------------------------------------------------------
 Center     Atomic      Atomic             Coordinates (Angstroms)
 Number     Number       Type             X           Y           Z
 ---------------------------------------------------------------------
      1          6           0        0.000000    0.000000   -0.519451
      2         16           0        0.000000    0.000000    1.083692
      3         35           0        0.000000   -1.568516   -1.578570
      4         35           0        0.010000    1.568516   -1.578570
 ---------------------------------------------------------------------

 SCF Done:  E(RHF) =  -5580.30867929     A.U. after   14 cycles
 E2 =    -0.8101043303D+00 EUMP2 =    -0.55811187836236D+04

 Mulliken atomic charges:
              1
     1  C   -0.160309
     2  S   -0.044524
     3  Br   0.102433
     4  Br   0.102401
 Sum of Mulliken atomic charges =   0.00000

 Dipole moment (field-independent basis, Debye):
    X=              0.0033    Y=             -0.0001    Z=             -0.4732  Tot=              0.4732
 Quadrupole moment (field-independent basis, Debye-Ang):
   XX=            -54.9569   YY=            -53.8192   ZZ=            -53.7721
   XY=              0.0036   XZ=             -0.0050   YZ=              0.0002

 Normal termination of Gaussian 09 at Mon Nov 29 15:48:58 2021.
