 Gaussian 09, Revision B.01,
 Gaussian 09:  EM64L-G09RevB.01 12-Aug-2010

 -----------------------------------------------------
 # qcisd/aug-cc-pvtz nosymm density=current output=wfn
 -----------------------------------------------------

 ------------------
 br2cs-wavefunction
 ------------------
 Symbolic Z-matrix:
 Charge =  0 Multiplicity = 1

                          Input orientation:
 ---------------------------------------------------------------------
 Center     Atomic      Atomic             Coordinates (Angstroms)
 Number     Number       Type             X           Y           Z
 ---------------------------------------------------------------------
      1          6           0        0.000000    0.000000   -0.519451
      2         16           0        0.000000    0.000000    1.073692
      3         35           0        0.000000   -1.568516   -1.578570
      4         35           0        0.000000    1.568516   -1.578570
 ---------------------------------------------------------------------

 SCF Done:  E(RHF) =  -5580.30894572     A.U. after   14 cycles
 E2 =    -0.8097256491D+00 EUMP2 =    -0.55811186713646D+04

 Mulliken atomic charges:
              1
     1  C   -0.158481
     2  S   -0.042324
     3  Br   0.100403
     4  Br   0.100403
 Sum of Mulliken atomic charges =   0.00000

 Dipole moment (field-independent basis, Debye):
    X=              0.0000    Y=              0.0000    Z=             -0.4272  Tot=              0.4272
 Quadrupole moment (field-independent basis, Debye-Ang):
   XX=            -54.9273   YY=            -53.8510   ZZ=            -53.8086
   XY=              0.0000   XZ=              0.0000   YZ=              0.0000

 Normal termination of Gaussian 09 at Mon Nov 29 09:57:29 2021.
