 Gaussian 09, Revision B.01,
 Gaussian 09:  EM64L-G09RevB.01 12-Aug-2010

 -----------------------------------------------------
 # qcisd/aug-cc-pvtz nosymm density=current output=wfn
 -----------------------------------------------------

 ------------------
 br2cs-wavefunction
 ------------------
 Symbolic Z-matrix:
 Charge =  0 Multiplicity = 1

                          Input orientation:
 ---------------------------------------------------------------------
 Center     Atomic      Atomic             Coordinates (Angstroms)
 Number     Number       Type             X           Y           Z
 ---------------------------------------------------------------------
      1          6           0        0.000000    0.000000   -0.529451
      2         16           0        0.000000    0.000000    1.083692
      3         35           0        0.000000   -1.568516   -1.578570
      4         35           0        0.000000    1.568516   -1.578570
 ---------------------------------------------------------------------

 SCF Done:  E(RHF) =  -5580.30833953     A.U. after   14 cycles
 E2 =    -0.8104119340D+00 EUMP2 =    -0.55811187514683D+04

 Mulliken atomic charges:
              1
     1  C   -0.167702
     2  S   -0.050631
     3  Br   0.109166
     4  Br   0.109166
 Sum of Mulliken atomic charges =   0.00000

 Dipole moment (field-independent basis, Debye):
    X=              0.0000    Y=              0.0000    Z=             -0.5504  Tot=              0.5504
 Quadrupole moment (field-independent basis, Debye-Ang):
   XX=            -54.9666   YY=            -53.7191   ZZ=            -53.7673
   XY=              0.0000   XZ=              0.0000   YZ=              0.0000

 Normal termination of Gaussian 09 at Mon Nov 29 05:05:38 2021.
