 Gaussian 09, Revision B.01,
 Gaussian 09:  EM64L-G09RevB.01 12-Aug-2010

 -----------------------------------------------------
 # qcisd/aug-cc-pvtz nosymm density=current output=wfn
 -----------------------------------------------------

 ------------------
 br2cs-wavefunction
 ------------------
 Symbolic Z-matrix:
 Charge =  0 Multiplicity = 1

                          Input orientation:
 ---------------------------------------------------------------------
 Center     Atomic      Atomic             Coordinates (Angstroms)
 Number     Number       Type             X           Y           Z
 ---------------------------------------------------------------------
      1          6           0        0.000000    0.000000   -0.519451
      2         16           0        0.000000    0.000000    1.083692
      3         35           0        0.000000   -1.568516   -1.578570
      4         35           0        0.000000    1.558516   -1.578570
 ---------------------------------------------------------------------

 SCF Done:  E(RHF) =  -5580.30868077     A.U. after   14 cycles
 E2 =    -0.8101216973D+00 EUMP2 =    -0.55811188024715D+04

 Mulliken atomic charges:
              1
     1  C   -0.162262
     2  S   -0.046983
     3  Br   0.099673
     4  Br   0.109573
 Sum of Mulliken atomic charges =   0.00000

 Dipole moment (field-independent basis, Debye):
    X=              0.0000    Y=              0.0286    Z=             -0.4931  Tot=              0.4940
 Quadrupole moment (field-independent basis, Debye-Ang):
   XX=            -54.9426   YY=            -53.8262   ZZ=            -53.7508
   XY=              0.0000   XZ=              0.0000   YZ=             -0.0487

 Normal termination of Gaussian 09 at Mon Nov 29 18:15:33 2021.
