 Gaussian 09, Revision B.01,
 Gaussian 09:  EM64L-G09RevB.01 12-Aug-2010

 -----------------------------------------------------
 # qcisd/aug-cc-pvtz nosymm density=current output=wfn
 -----------------------------------------------------

 ------------------
 br2cs-wavefunction
 ------------------
 Symbolic Z-matrix:
 Charge =  0 Multiplicity = 1

                          Input orientation:
 ---------------------------------------------------------------------
 Center     Atomic      Atomic             Coordinates (Angstroms)
 Number     Number       Type             X           Y           Z
 ---------------------------------------------------------------------
      1          6           0        0.000000    0.000000   -0.519451
      2         16           0        0.000000    0.000000    1.083692
      3         35           0        0.000000   -1.568516   -1.578570
      4         35           0        0.000000    1.568516   -1.588570
 ---------------------------------------------------------------------

 SCF Done:  E(RHF) =  -5580.30861935     A.U. after   14 cycles
 E2 =    -0.8101446710D+00 EUMP2 =    -0.55811187640258D+04

 Mulliken atomic charges:
              1
     1  C   -0.157589
     2  S   -0.042593
     3  Br   0.103276
     4  Br   0.096906
 Sum of Mulliken atomic charges =   0.00000

 Dipole moment (field-independent basis, Debye):
    X=              0.0000    Y=             -0.0163    Z=             -0.4574  Tot=              0.4577
 Quadrupole moment (field-independent basis, Debye-Ang):
   XX=            -54.9667   YY=            -53.8534   ZZ=            -53.7519
   XY=              0.0000   XZ=              0.0000   YZ=              0.0070

 Normal termination of Gaussian 09 at Mon Nov 29 19:50:06 2021.
