 Gaussian 09, Revision B.01,
 Gaussian 09:  EM64L-G09RevB.01 12-Aug-2010

 --------------------------------------------
 #opt qcisd/aug-cc-pvtz density=current nosym
 --------------------------------------------

 ----
 h2cs
 ----
 Symbolic Z-matrix:
 Charge =  0 Multiplicity = 1

 SCF Done:  E(RHF) =  -436.556730741     A.U. after   11 cycles
 E2 =    -0.3388118454D+00 EUMP2 =    -0.43689554258647D+03
 SCF Done:  E(RHF) =  -436.557737998     A.U. after   10 cycles
 E2 =    -0.3407126145D+00 EUMP2 =    -0.43689845061297D+03
 SCF Done:  E(RHF) =  -436.557589508     A.U. after    9 cycles
 E2 =    -0.3408693536D+00 EUMP2 =    -0.43689845886208D+03
 Optimization completed.
    -- Stationary point found.

                          Input orientation:
 ---------------------------------------------------------------------
 Center     Atomic      Atomic             Coordinates (Angstroms)
 Number     Number       Type             X           Y           Z
 ---------------------------------------------------------------------
      1          6           0        0.000000    0.000000   -0.555291
      2         16           0        0.000000    0.000000    1.060374
      3          1           0        0.000000   -0.922280   -1.128992
      4          1           0        0.000000    0.922280   -1.128992
 ---------------------------------------------------------------------

 Alpha  occ. eigenvalues --  -91.95647 -11.32122  -8.95855  -6.63916  -6.63890
 Alpha  occ. eigenvalues --   -6.63692  -1.06423  -0.81467  -0.64496  -0.54133
 Alpha  occ. eigenvalues --   -0.41771  -0.35260
 Alpha virt. eigenvalues --    0.02840   0.03497   0.04269   0.06130   0.09229
 Alpha virt. eigenvalues --    0.10419   0.11645   0.13132   0.13507   0.14771
 Alpha virt. eigenvalues --    0.19859   0.21666   0.23070   0.24351   0.27036

 Mulliken atomic charges:
              1
     1  C   -0.826098
     2  S   -0.065479
     3  H    0.445788
     4  H    0.445788
 Sum of Mulliken atomic charges =   0.00000

 Dipole moment (field-independent basis, Debye):
    X=              0.0000    Y=              0.0000    Z=             -1.7524  Tot=              1.7524
 Quadrupole moment (field-independent basis, Debye-Ang):
   XX=            -19.9779   YY=            -20.5753   ZZ=            -18.9724
   XY=              0.0000   XZ=              0.0000   YZ=              0.0000

 Normal termination of Gaussian 09 at Wed Nov 17 02:01:26 2021.
