 Gaussian 09, Revision B.01,
 Gaussian 09:  EM64L-G09RevB.01 12-Aug-2010

 ----------------------------------------------------------------------
 #freq=noraman qcisd/aug-cc-pvtz density=current iop(7/33=1) nosym form
 check=forcecart
 ----------------------------------------------------------------------

 ----------------
 h2cs-frequencies
 ----------------
 Symbolic Z-matrix:
 Charge =  0 Multiplicity = 1

                          Input orientation:
 ---------------------------------------------------------------------
 Center     Atomic      Atomic             Coordinates (Angstroms)
 Number     Number       Type             X           Y           Z
 ---------------------------------------------------------------------
      1          6           0        0.000000    0.000000   -0.555291
      2         16           0        0.000000    0.000000    1.060374
      3          1           0        0.000000   -0.922280   -1.128992
      4          1           0        0.000000    0.922280   -1.128992
 ---------------------------------------------------------------------

 SCF Done:  E(RHF) =  -436.557589484     A.U. after   11 cycles
 E2 =    -0.3408693743D+00 EUMP2 =    -0.43689845885874D+03
 SCF Done:  E(RHF) =  -436.557589217     A.U. after    7 cycles
 E2 =    -0.3408694438D+00 EUMP2 =    -0.43689845866092D+03
 SCF Done:  E(RHF) =  -436.557589217     A.U. after    8 cycles
 E2 =    -0.3408694484D+00 EUMP2 =    -0.43689845866548D+03
 SCF Done:  E(RHF) =  -436.557588396     A.U. after    7 cycles
 E2 =    -0.3408694309D+00 EUMP2 =    -0.43689845782677D+03
 SCF Done:  E(RHF) =  -436.557588396     A.U. after    7 cycles
 E2 =    -0.3408694227D+00 EUMP2 =    -0.43689845781864D+03
 SCF Done:  E(RHF) =  -436.557612733     A.U. after    8 cycles
 E2 =    -0.3408460909D+00 EUMP2 =    -0.43689845882387D+03
 SCF Done:  E(RHF) =  -436.557563781     A.U. after    8 cycles
 E2 =    -0.3408928317D+00 EUMP2 =    -0.43689845661305D+03
 SCF Done:  E(RHF) =  -436.557589456     A.U. after    7 cycles
 E2 =    -0.3408693891D+00 EUMP2 =    -0.43689845884504D+03
 SCF Done:  E(RHF) =  -436.557589456     A.U. after    7 cycles
 E2 =    -0.3408693960D+00 EUMP2 =    -0.43689845885192D+03
 SCF Done:  E(RHF) =  -436.557589418     A.U. after    6 cycles
 E2 =    -0.3408693940D+00 EUMP2 =    -0.43689845881196D+03
 E2 =    -0.3408693930D+00 EUMP2 =    -0.43689845881095D+03
 E2 =    -0.3409054839D+00 EUMP2 =    -0.43689845601317D+03
 E2 =    -0.3408333200D+00 EUMP2 =    -0.43689846012368D+03
 E2 =    -0.3408693946D+00 EUMP2 =    -0.43689845883996D+03
 E2 =    -0.3408693882D+00 EUMP2 =    -0.43689845883351D+03
 SCF Done:  E(RHF) =  -436.557599948     A.U. after    7 cycles
 E2 =    -0.3408576980D+00 EUMP2 =    -0.43689845764561D+03
 SCF Done:  E(RHF) =  -436.557578008     A.U. after    8 cycles
 E2 =    -0.3408810947D+00 EUMP2 =    -0.43689845910292D+03
 SCF Done:  E(RHF) =  -436.557596061     A.U. after    7 cycles
 E2 =    -0.3408630296D+00 EUMP2 =    -0.43689845909081D+03
 SCF Done:  E(RHF) =  -436.557582400     A.U. after    8 cycles
 E2 =    -0.3408757561D+00 EUMP2 =    -0.43689845815573D+03
 SCF Done:  E(RHF) =  -436.557589445     A.U. after    8 cycles
 E2 =    -0.3408693946D+00 EUMP2 =    -0.43689845883996D+03
 SCF Done:  E(RHF) =  -436.557589445     A.U. after    9 cycles
 E2 =    -0.3408693882D+00 EUMP2 =    -0.43689845883351D+03
 SCF Done:  E(RHF) =  -436.557578008     A.U. after    7 cycles
 E2 =    -0.3408810887D+00 EUMP2 =    -0.43689845909696D+03
 SCF Done:  E(RHF) =  -436.557599948     A.U. after    8 cycles
 E2 =    -0.3408576920D+00 EUMP2 =    -0.43689845763963D+03
 SCF Done:  E(RHF) =  -436.557596061     A.U. after    7 cycles
 E2 =    -0.3408630296D+00 EUMP2 =    -0.43689845909081D+03
 SCF Done:  E(RHF) =  -436.557582400     A.U. after    8 cycles
 E2 =    -0.3408757561D+00 EUMP2 =    -0.43689845815573D+03

 Alpha  occ. eigenvalues --  -91.95649 -11.32129  -8.95856  -6.63918  -6.63891
 Alpha  occ. eigenvalues --   -6.63693  -1.06420  -0.81464  -0.64479  -0.54136
 Alpha  occ. eigenvalues --   -0.41772  -0.35261
 Alpha virt. eigenvalues --    0.02840   0.03497   0.04269   0.06129   0.09230
 Alpha virt. eigenvalues --    0.10419   0.11644   0.13132   0.13507   0.14771
 Alpha virt. eigenvalues --    0.19861   0.21666   0.23071   0.24346   0.27032

 Mulliken atomic charges:
              1
     1  C   -0.825645
     2  S   -0.065421
     3  H    0.445830
     4  H    0.445235
 Sum of Mulliken atomic charges =   0.00000

 Dipole moment (field-independent basis, Debye):
    X=              0.0000    Y=             -0.0003    Z=             -1.7522  Tot=              1.7522
 Quadrupole moment (field-independent basis, Debye-Ang):
   XX=            -19.9784   YY=            -20.5765   ZZ=            -18.9707
   XY=              0.0000   XZ=              0.0000   YZ=             -0.0009

                     1                      2                      3
                     A                      A                      A
 Frequencies --  1007.6235              1018.8487              1086.3055
 Red. masses --     1.2040                 1.2929                 4.7500
 Frc consts  --     0.7203                 0.7907                 3.3025
 IR Inten    --     1.5795                39.7436                11.1949

                     4                      5                      6
                     A                      A                      A
 Frequencies --  1509.3981              3105.9644              3193.2429
 Red. masses --     1.1768                 1.0506                 1.1197
 Frc consts  --     1.5797                 5.9715                 6.7270
 IR Inten    --     2.8165                23.7138                 2.7803

 - Thermochemistry -
 -------------------
 Temperature   298.150 Kelvin.  Pressure   1.00000 Atm.
 Atom     1 has atomic number  6 and mass  12.00000

 Molecular mass:    45.98772 amu.
 Principal axes and moments of inertia in atomic units:
                           1         2         3
     Eigenvalues --     6.12264 102.37505 108.49768
           X            0.00000   0.00000   1.00000
           Y            0.00000   1.00000   0.00000
           Z            1.00000   0.00000   0.00000
 This molecule is an asymmetric top.
 Rotational symmetry number  2.
 Rotational temperatures (Kelvin)     14.14649     0.84604     0.79830
 Rotational constants (GHZ):         294.76538    17.62872    16.63391
 Zero-point vibrational energy      65324.4 (Joules/Mol)
                                   15.61290 (Kcal/Mol)
 Vibrational temperatures:   1449.74  1465.89  1562.95  2171.68  4468.78
          (Kelvin)           4594.36

 Zero-point correction=                           0.024881 (Hartree/Particle)
 Thermal correction to Energy=                    0.027814
 Thermal correction to Enthalpy=                  0.028759
 Thermal correction to Gibbs Free Energy=         0.002560
 Sum of electronic and zero-point Energies=           -436.898634
 Sum of electronic and thermal Energies=              -436.895701
 Sum of electronic and thermal Enthalpies=            -436.894756
 Sum of electronic and thermal Free Energies=         -436.920955

                     E (Thermal)             CV                S
                      KCal/Mol        Cal/Mol-Kelvin    Cal/Mol-Kelvin
 Total                   17.454              7.052             55.139
 Electronic               0.000              0.000              0.000
 Translational            0.889              2.981             37.403
 Rotational               0.889              2.981             17.482
 Vibrational             15.676              1.091              0.255

 Optimization completed.
    -- Stationary point found.
 Normal termination of Gaussian 09 at Wed Nov 17 03:32:19 2021.
