 Gaussian 09, Revision B.01,
 Gaussian 09:  EM64L-G09RevB.01 12-Aug-2010

 -----------------------------------------------------
 # qcisd/aug-cc-pvtz nosymm density=current output=wfn
 -----------------------------------------------------

 ------------------
 br2co-wavefunction
 ------------------
 Symbolic Z-matrix:
 Charge =  0 Multiplicity = 1

                          Input orientation:
 ---------------------------------------------------------------------
 Center     Atomic      Atomic             Coordinates (Angstroms)
 Number     Number       Type             X           Y           Z
 ---------------------------------------------------------------------
      1          6           0        0.000000    0.000000   -0.491759
      2         35           0        0.000000   -1.594181   -1.546820
      3         35           0        0.000000    1.584181   -1.546820
      4          8           0        0.000000    0.000000    0.684500
 ---------------------------------------------------------------------

 SCF Done:  E(RHF) =  -5257.68454918     A.U. after   12 cycles
 E2 =    -0.8640814363D+00 EUMP2 =    -0.52585486306126D+04

 Mulliken atomic charges:
              1
     1  C    0.145880
     2  Br   0.100819
     3  Br   0.111226
     4  O   -0.357925
 Sum of Mulliken atomic charges =   0.00000

 Dipole moment (field-independent basis, Debye):
    X=              0.0000    Y=              0.0368    Z=             -1.2539  Tot=              1.2545
 Quadrupole moment (field-independent basis, Debye-Ang):
   XX=            -46.9469   YY=            -44.9419   ZZ=            -47.4990
   XY=              0.0000   XZ=              0.0000   YZ=             -0.0600

 Normal termination of Gaussian 09 at Sun Nov 28 17:13:51 2021.
