 Gaussian 09, Revision B.01,
 Gaussian 09:  EM64L-G09RevB.01 12-Aug-2010

 -----------------------------------------------------
 # qcisd/aug-cc-pvtz nosymm density=current output=wfn
 -----------------------------------------------------

 ------------------
 br2co-wavefunction
 ------------------
 Symbolic Z-matrix:
 Charge =  0 Multiplicity = 1

                          Input orientation:
 ---------------------------------------------------------------------
 Center     Atomic      Atomic             Coordinates (Angstroms)
 Number     Number       Type             X           Y           Z
 ---------------------------------------------------------------------
      1          6           0        0.000000    0.000000   -0.491759
      2         35           0        0.000000   -1.594181   -1.546820
      3         35           0        0.000000    1.594181   -1.546820
      4          8           0        0.000000    0.000000    0.674500
 ---------------------------------------------------------------------

 SCF Done:  E(RHF) =  -5257.68540515     A.U. after   12 cycles
 E2 =    -0.8627952411D+00 EUMP2 =    -0.52585482003886D+04

 Mulliken atomic charges:
              1
     1  C    0.150478
     2  Br   0.100860
     3  Br   0.100860
     4  O   -0.352198
 Sum of Mulliken atomic charges =   0.00000

 Dipole moment (field-independent basis, Debye):
    X=              0.0000    Y=              0.0000    Z=             -1.1781  Tot=              1.1781
 Quadrupole moment (field-independent basis, Debye-Ang):
   XX=            -46.9490   YY=            -45.0094   ZZ=            -47.5633
   XY=              0.0000   XZ=              0.0000   YZ=              0.0000

 Normal termination of Gaussian 09 at Sun Nov 28 23:14:24 2021.
