 Gaussian 09, Revision B.01,
 Gaussian 09:  EM64L-G09RevB.01 12-Aug-2010

 -----------------------------------------------------
 # qcisd/aug-cc-pvtz nosymm density=current output=wfn
 -----------------------------------------------------

 ------------------
 br2co-wavefunction
 ------------------
 Symbolic Z-matrix:
 Charge =  0 Multiplicity = 1

                          Input orientation:
 ---------------------------------------------------------------------
 Center     Atomic      Atomic             Coordinates (Angstroms)
 Number     Number       Type             X           Y           Z
 ---------------------------------------------------------------------
      1          6           0        0.000000    0.000000   -0.491759
      2         35           0        0.010000   -1.594181   -1.546820
      3         35           0        0.000000    1.594181   -1.546820
      4          8           0        0.000000    0.000000    0.684500
 ---------------------------------------------------------------------

 SCF Done:  E(RHF) =  -5257.68454768     A.U. after   12 cycles
 E2 =    -0.8640613443D+00 EUMP2 =    -0.52585486090240D+04

 Mulliken atomic charges:
              1
     1  C    0.149674
     2  Br   0.103702
     3  Br   0.103734
     4  O   -0.357110
 Sum of Mulliken atomic charges =   0.00000

 Dipole moment (field-independent basis, Debye):
    X=              0.0012    Y=              0.0001    Z=             -1.2403  Tot=              1.2403
 Quadrupole moment (field-independent basis, Debye-Ang):
   XX=            -46.9633   YY=            -44.9358   ZZ=            -47.5253
   XY=             -0.0064   XZ=             -0.0071   YZ=             -0.0002

 Normal termination of Gaussian 09 at Sun Nov 28 10:33:01 2021.
