 Gaussian 09, Revision B.01,
 Gaussian 09:  EM64L-G09RevB.01 12-Aug-2010

 -----------------------------------------------------
 # qcisd/aug-cc-pvtz nosymm density=current output=wfn
 -----------------------------------------------------

 ------------------
 br2co-wavefunction
 ------------------
 Symbolic Z-matrix:
 Charge =  0 Multiplicity = 1

                          Input orientation:
 ---------------------------------------------------------------------
 Center     Atomic      Atomic             Coordinates (Angstroms)
 Number     Number       Type             X           Y           Z
 ---------------------------------------------------------------------
      1          6           0        0.000000    0.000000   -0.491759
      2         35           0        0.000000   -1.594181   -1.536820
      3         35           0        0.000000    1.594181   -1.546820
      4          8           0        0.000000    0.000000    0.684500
 ---------------------------------------------------------------------

 SCF Done:  E(RHF) =  -5257.68459580     A.U. after   12 cycles
 E2 =    -0.8639987085D+00 EUMP2 =    -0.52585485945088D+04

 Mulliken atomic charges:
              1
     1  C    0.146573
     2  Br   0.108584
     3  Br   0.102926
     4  O   -0.358083
 Sum of Mulliken atomic charges =   0.00000

 Dipole moment (field-independent basis, Debye):
    X=              0.0000    Y=             -0.0167    Z=             -1.2482  Tot=              1.2483
 Quadrupole moment (field-independent basis, Debye-Ang):
   XX=            -46.9532   YY=            -44.9029   ZZ=            -47.5380
   XY=              0.0000   XZ=              0.0000   YZ=              0.0129

 Normal termination of Gaussian 09 at Sun Nov 28 13:31:27 2021.
