 Gaussian 09, Revision B.01,
 Gaussian 09:  EM64L-G09RevB.01 12-Aug-2010

 -----------------------------------------------------
 # qcisd/aug-cc-pvtz nosymm density=current output=wfn
 -----------------------------------------------------

 ------------------
 br2co-wavefunction
 ------------------
 Symbolic Z-matrix:
 Charge =  0 Multiplicity = 1

                          Input orientation:
 ---------------------------------------------------------------------
 Center     Atomic      Atomic             Coordinates (Angstroms)
 Number     Number       Type             X           Y           Z
 ---------------------------------------------------------------------
      1          6           0        0.000000    0.000000   -0.491759
      2         35           0        0.000000   -1.594181   -1.546820
      3         35           0        0.000000    1.594181   -1.546820
      4          8           0        0.010000    0.000000    0.684500
 ---------------------------------------------------------------------

 SCF Done:  E(RHF) =  -5257.68454019     A.U. after   12 cycles
 E2 =    -0.8640669417D+00 EUMP2 =    -0.52585486071344D+04

 Mulliken atomic charges:
              1
     1  C    0.149666
     2  Br   0.103735
     3  Br   0.103735
     4  O   -0.357136
 Sum of Mulliken atomic charges =   0.00000

 Dipole moment (field-independent basis, Debye):
    X=             -0.0084    Y=              0.0000    Z=             -1.2406  Tot=              1.2406
 Quadrupole moment (field-independent basis, Debye-Ang):
   XX=            -46.9635   YY=            -44.9354   ZZ=            -47.5250
   XY=              0.0000   XZ=             -0.0227   YZ=              0.0000

 Normal termination of Gaussian 09 at Sun Nov 28 19:29:14 2021.
