 Gaussian 09, Revision B.01,
 Gaussian 09:  EM64L-G09RevB.01 12-Aug-2010

 -----------------------------------------------------
 # qcisd/aug-cc-pvtz nosymm density=current output=wfn
 -----------------------------------------------------

 ------------------
 br2co-wavefunction
 ------------------
 Symbolic Z-matrix:
 Charge =  0 Multiplicity = 1

                          Input orientation:
 ---------------------------------------------------------------------
 Center     Atomic      Atomic             Coordinates (Angstroms)
 Number     Number       Type             X           Y           Z
 ---------------------------------------------------------------------
      1          6           0        0.000000    0.000000   -0.491759
      2         35           0        0.000000   -1.594181   -1.556820
      3         35           0        0.000000    1.594181   -1.546820
      4          8           0        0.000000    0.000000    0.684500
 ---------------------------------------------------------------------

 SCF Done:  E(RHF) =  -5257.68447364     A.U. after   12 cycles
 E2 =    -0.8641266698D+00 EUMP2 =    -0.52585486003126D+04

 Mulliken atomic charges:
              1
     1  C    0.152674
     2  Br   0.098909
     3  Br   0.104551
     4  O   -0.356133
 Sum of Mulliken atomic charges =   0.00000

 Dipole moment (field-independent basis, Debye):
    X=              0.0000    Y=              0.0169    Z=             -1.2323  Tot=              1.2325
 Quadrupole moment (field-independent basis, Debye-Ang):
   XX=            -46.9735   YY=            -44.9685   ZZ=            -47.5130
   XY=              0.0000   XZ=              0.0000   YZ=             -0.0139

 Normal termination of Gaussian 09 at Sun Nov 28 14:16:21 2021.
