 Gaussian 09, Revision B.01,
 Gaussian 09:  EM64L-G09RevB.01 12-Aug-2010

 -----------------------------------------------------
 # qcisd/aug-cc-pvtz nosymm density=current output=wfn
 -----------------------------------------------------

 ------------------
 cl2cs-wavefunction
 ------------------
 Symbolic Z-matrix:
 Charge =  0 Multiplicity = 1

                          Input orientation:
 ---------------------------------------------------------------------
 Center     Atomic      Atomic             Coordinates (Angstroms)
 Number     Number       Type             X           Y           Z
 ---------------------------------------------------------------------
      1          6           0        0.000000    0.010000   -0.522914
      2         17           0        0.000000   -1.430735   -1.500900
      3         17           0        0.000000    1.430735   -1.500900
      4         16           0        0.000000    0.000000    1.081815
 ---------------------------------------------------------------------

 SCF Done:  E(RHF) =  -1354.42596986     A.U. after   13 cycles
 E2 =    -0.7243832713D+00 EUMP2 =    -0.13551503531282D+04

 Mulliken atomic charges:
              1
     1  C    0.004980
     2  Cl  -0.022631
     3  Cl  -0.008659
     4  S    0.026310
 Sum of Mulliken atomic charges =   0.00000

 Dipole moment (field-independent basis, Debye):
    X=              0.0000    Y=              0.0686    Z=             -0.4352  Tot=              0.4405
 Quadrupole moment (field-independent basis, Debye-Ang):
   XX=            -43.1530   YY=            -43.2923   ZZ=            -42.5375
   XY=              0.0000   XZ=              0.0000   YZ=             -0.1477

 Normal termination of Gaussian 09 at Sat Nov 27 20:18:12 2021.
