 Gaussian 09, Revision B.01,
 Gaussian 09:  EM64L-G09RevB.01 12-Aug-2010

 -----------------------------------------------------
 # qcisd/aug-cc-pvtz nosymm density=current output=wfn
 -----------------------------------------------------

 ------------------
 cl2cs-wavefunction
 ------------------
 Symbolic Z-matrix:
 Charge =  0 Multiplicity = 1

                          Input orientation:
 ---------------------------------------------------------------------
 Center     Atomic      Atomic             Coordinates (Angstroms)
 Number     Number       Type             X           Y           Z
 ---------------------------------------------------------------------
      1          6           0        0.000000    0.000000   -0.522914
      2         17           0        0.000000   -1.430735   -1.500900
      3         17           0        0.000000    1.430735   -1.500900
      4         16           0        0.000000    0.000000    1.091815
 ---------------------------------------------------------------------

 SCF Done:  E(RHF) =  -1354.42561486     A.U. after   12 cycles
 E2 =    -0.7247331885D+00 EUMP2 =    -0.13551503480446D+04

 Mulliken atomic charges:
              1
     1  C    0.005772
     2  Cl  -0.014170
     3  Cl  -0.014170
     4  S    0.022568
 Sum of Mulliken atomic charges =   0.00000

 Dipole moment (field-independent basis, Debye):
    X=              0.0000    Y=              0.0000    Z=             -0.4768  Tot=              0.4768
 Quadrupole moment (field-independent basis, Debye-Ang):
   XX=            -43.1856   YY=            -43.2759   ZZ=            -42.5094
   XY=              0.0000   XZ=              0.0000   YZ=              0.0000

 Normal termination of Gaussian 09 at Sun Nov 28 03:59:15 2021.
