 Gaussian 09, Revision B.01,
 Gaussian 09:  EM64L-G09RevB.01 12-Aug-2010

 -----------------------------------------------------
 # qcisd/aug-cc-pvtz nosymm density=current output=wfn
 -----------------------------------------------------

 ------------------
 cl2cs-wavefunction
 ------------------
 Symbolic Z-matrix:
 Charge =  0 Multiplicity = 1

                          Input orientation:
 ---------------------------------------------------------------------
 Center     Atomic      Atomic             Coordinates (Angstroms)
 Number     Number       Type             X           Y           Z
 ---------------------------------------------------------------------
      1          6           0        0.000000    0.000000   -0.522914
      2         17           0        0.000000   -1.440735   -1.500900
      3         17           0        0.000000    1.430735   -1.500900
      4         16           0        0.000000    0.000000    1.081815
 ---------------------------------------------------------------------

 SCF Done:  E(RHF) =  -1354.42588246     A.U. after   13 cycles
 E2 =    -0.7244551664D+00 EUMP2 =    -0.13551503376221D+04

 Mulliken atomic charges:
              1
     1  C    0.006480
     2  Cl  -0.021072
     3  Cl  -0.014302
     4  S    0.028894
 Sum of Mulliken atomic charges =   0.00000

 Dipole moment (field-independent basis, Debye):
    X=              0.0000    Y=              0.0305    Z=             -0.4119  Tot=              0.4131
 Quadrupole moment (field-independent basis, Debye-Ang):
   XX=            -43.1647   YY=            -43.2954   ZZ=            -42.5575
   XY=              0.0000   XZ=              0.0000   YZ=             -0.0498

 Normal termination of Gaussian 09 at Sat Nov 27 23:00:40 2021.
