 Gaussian 09, Revision B.01,
 Gaussian 09:  EM64L-G09RevB.01 12-Aug-2010

 -----------------------------------------------------
 # qcisd/aug-cc-pvtz nosymm density=current output=wfn
 -----------------------------------------------------

 ------------------
 cl2cs-wavefunction
 ------------------
 Symbolic Z-matrix:
 Charge =  0 Multiplicity = 1

                          Input orientation:
 ---------------------------------------------------------------------
 Center     Atomic      Atomic             Coordinates (Angstroms)
 Number     Number       Type             X           Y           Z
 ---------------------------------------------------------------------
      1          6           0        0.000000    0.000000   -0.522914
      2         17           0        0.000000   -1.430735   -1.500900
      3         17           0        0.000000    1.430735   -1.500900
      4         16           0        0.000000    0.000000    1.071815
 ---------------------------------------------------------------------

 SCF Done:  E(RHF) =  -1354.42627534     A.U. after   12 cycles
 E2 =    -0.7240160634D+00 EUMP2 =    -0.13551502913999D+04

 Mulliken atomic charges:
              1
     1  C    0.004401
     2  Cl  -0.017187
     3  Cl  -0.017187
     4  S    0.029972
 Sum of Mulliken atomic charges =   0.00000

 Dipole moment (field-independent basis, Debye):
    X=              0.0000    Y=              0.0000    Z=             -0.3932  Tot=              0.3932
 Quadrupole moment (field-independent basis, Debye-Ang):
   XX=            -43.1201   YY=            -43.3093   ZZ=            -42.5661
   XY=              0.0000   XZ=              0.0000   YZ=              0.0000

 Normal termination of Gaussian 09 at Sun Nov 28 04:22:29 2021.
