 Gaussian 16, Revision C.01,
 Gaussian 16:  EM64L-G16RevC.01  3-Jul-2019

 ----------------------------------------------------------------------
 # qcisd/aug-cc-pvtz nosymm density=current pop=(chelpg,hirshfeld,npa,d
 ipole)
 ----------------------------------------------------------------------

 ------------------
 cl2co-wavefunction
 ------------------
 Symbolic Z-matrix:
 Charge =  0 Multiplicity = 1

                          Input orientation:
 ---------------------------------------------------------------------
 Center     Atomic      Atomic             Coordinates (Angstroms)
 Number     Number       Type             X           Y           Z
 ---------------------------------------------------------------------
      1          8           0        0.000000    0.000000    0.683397
      2          6           0        0.000000    0.000000   -0.494687
      3         17           0        0.000000   -1.446870   -1.459805
      4         17           0        0.000000    1.446870   -1.469805
 ---------------------------------------------------------------------

 SCF Done:  E(RHF) =  -1031.80283603     A.U. after   12 cycles
 E2 =    -0.7792881769D+00 EUMP2 =    -0.10325821242028D+04

 Alpha  occ. eigenvalues -- -104.89048-104.89021 -20.62305 -11.47566 -10.61500
 Alpha  occ. eigenvalues --  -10.61461  -8.08178  -8.08139  -8.07966  -8.07948
 Alpha  occ. eigenvalues --   -8.07927  -8.07910  -1.48558  -1.20344  -1.14122
 Alpha  occ. eigenvalues --   -0.81213  -0.70833  -0.70156  -0.64898  -0.53114
 Alpha  occ. eigenvalues --   -0.50193  -0.49875  -0.49553  -0.47700
 Alpha virt. eigenvalues --    0.04784   0.06605   0.07982   0.08602   0.09343
 Alpha virt. eigenvalues --    0.09867   0.11381   0.12510   0.12763   0.13455
 Alpha virt. eigenvalues --    0.15769   0.15879   0.22055   0.22141   0.23672

 Mulliken charges:
               1
     1  O   -0.321694
     2  C    0.322866
     3  Cl   0.002003
     4  Cl  -0.003175
 Sum of Mulliken charges =  -0.00000

 Dipole moment (field-independent basis, Debye):
    X=              0.0000    Y=             -0.0172    Z=             -1.2514  Tot=              1.2515
 Quadrupole moment (field-independent basis, Debye-Ang):
   XX=            -35.0749   YY=            -34.3519   ZZ=            -36.2891
   XY=             -0.0000   XZ=             -0.0000   YZ=              0.0151

 ESP charges:
               1
     1  O   -0.329392
     2  C    0.460833
     3  Cl  -0.064486
     4  Cl  -0.066955
 Sum of ESP charges =   0.00000

 Summary of Natural Population Analysis:

                                       Natural Population
                Natural  -----------------------------------------------
    Atom  No    Charge         Core      Valence    Rydberg      Total
 -----------------------------------------------------------------------
      O    1   -0.46110      1.99951     6.36312    0.09847     8.46110
      C    2    0.41815      1.99941     3.46162    0.12083     5.58185
     Cl    3    0.02326      9.99934     6.83766    0.13974    16.97674
     Cl    4    0.01969      9.99935     6.84137    0.13959    16.98031
 =======================================================================
   * Total *   -0.00000     23.99761    23.50376    0.49863    48.00000

 Normal termination of Gaussian 16 at Sun Sep  4 03:10:40 2022.
