 Gaussian 16, Revision C.01,
 Gaussian 16:  EM64L-G16RevC.01  3-Jul-2019

 ----------------------------------------------------------------------
 # qcisd/aug-cc-pvtz nosymm density=current pop=(chelpg,hirshfeld,npa,d
 ipole)
 ----------------------------------------------------------------------

 ------------------
 cl2co-wavefunction
 ------------------
 Symbolic Z-matrix:
 Charge =  0 Multiplicity = 1

                          Input orientation:
 ---------------------------------------------------------------------
 Center     Atomic      Atomic             Coordinates (Angstroms)
 Number     Number       Type             X           Y           Z
 ---------------------------------------------------------------------
      1          8           0        0.000000    0.000000    0.683397
      2          6           0        0.000000    0.000000   -0.494687
      3         17           0       -0.010000   -1.446870   -1.469805
      4         17           0        0.000000    1.446870   -1.469805
 ---------------------------------------------------------------------

 SCF Done:  E(RHF) =  -1031.80274087     A.U. after   12 cycles
 E2 =    -0.7794093682D+00 EUMP2 =    -0.10325821502372D+04

 Alpha  occ. eigenvalues -- -104.89034-104.89033 -20.62385 -11.47629 -10.61474
 Alpha  occ. eigenvalues --  -10.61472  -8.08151  -8.08151  -8.07940  -8.07939
 Alpha  occ. eigenvalues --   -8.07923  -8.07922  -1.48588  -1.20279  -1.14052
 Alpha  occ. eigenvalues --   -0.81223  -0.70798  -0.70168  -0.64881  -0.53115
 Alpha  occ. eigenvalues --   -0.50173  -0.49904  -0.49524  -0.47705
 Alpha virt. eigenvalues --    0.04778   0.06608   0.07970   0.08607   0.09322
 Alpha virt. eigenvalues --    0.09841   0.11377   0.12504   0.12770   0.13446
 Alpha virt. eigenvalues --    0.15700   0.15883   0.22043   0.22150   0.23660

 Mulliken charges:
               1
     1  O   -0.320805
     2  C    0.325078
     3  Cl  -0.002151
     4  Cl  -0.002122
 Sum of Mulliken charges =  -0.00000

 Dipole moment (field-independent basis, Debye):
    X=             -0.0001    Y=              0.0001    Z=             -1.2392  Tot=              1.2392
 Quadrupole moment (field-independent basis, Debye-Ang):
   XX=            -35.0849   YY=            -34.3837   ZZ=            -36.2852
   XY=              0.0024   XZ=              0.0031   YZ=             -0.0002

 ESP charges:
               1
     1  O   -0.216824
     2  C    0.214203
     3  Cl   0.001302
     4  Cl   0.001320
 Sum of ESP charges =   0.00000

 Summary of Natural Population Analysis:

                                       Natural Population
                Natural  -----------------------------------------------
    Atom  No    Charge         Core      Valence    Rydberg      Total
 -----------------------------------------------------------------------
      O    1   -0.46061      1.99951     6.36261    0.09849     8.46061
      C    2    0.42083      1.99941     3.45915    0.12061     5.57917
     Cl    3    0.01988      9.99935     6.84111    0.13966    16.98012
     Cl    4    0.01990      9.99935     6.84109    0.13966    16.98010
 =======================================================================
   * Total *    0.00000     23.99762    23.50396    0.49842    48.00000

 Normal termination of Gaussian 16 at Sun Sep  4 01:50:21 2022.
