 Gaussian 16, Revision C.01,
 Gaussian 16:  EM64L-G16RevC.01  3-Jul-2019

 ----------------------------------------------------------------------
 # qcisd/aug-cc-pvtz nosymm density=current pop=(chelpg,hirshfeld,npa,d
 ipole)
 ----------------------------------------------------------------------

 ------------------
 cl2co-wavefunction
 ------------------
 Symbolic Z-matrix:
 Charge =  0 Multiplicity = 1

                          Input orientation:
 ---------------------------------------------------------------------
 Center     Atomic      Atomic             Coordinates (Angstroms)
 Number     Number       Type             X           Y           Z
 ---------------------------------------------------------------------
      1          8           0        0.000000    0.000000    0.683397
      2          6           0        0.000000    0.010000   -0.494687
      3         17           0        0.000000   -1.446870   -1.469805
      4         17           0        0.000000    1.446870   -1.469805
 ---------------------------------------------------------------------

 SCF Done:  E(RHF) =  -1031.80267897     A.U. after   12 cycles
 E2 =    -0.7794236354D+00 EUMP2 =    -0.10325821026055D+04

 Alpha  occ. eigenvalues -- -104.89224-104.88843 -20.62386 -11.47631 -10.61674
 Alpha  occ. eigenvalues --  -10.61273  -8.08353  -8.08139  -8.08121  -8.07949
 Alpha  occ. eigenvalues --   -8.07740  -8.07723  -1.48585  -1.20304  -1.14033
 Alpha  occ. eigenvalues --   -0.81226  -0.70809  -0.70158  -0.64883  -0.53122
 Alpha  occ. eigenvalues --   -0.50229  -0.49846  -0.49518  -0.47699
 Alpha virt. eigenvalues --    0.04777   0.06609   0.07970   0.08605   0.09322
 Alpha virt. eigenvalues --    0.09840   0.11377   0.12504   0.12769   0.13447
 Alpha virt. eigenvalues --    0.15699   0.15884   0.22033   0.22161   0.23662

 Mulliken charges:
               1
     1  O   -0.320750
     2  C    0.324913
     3  Cl  -0.011090
     4  Cl   0.006927
 Sum of Mulliken charges =  -0.00000

 Dipole moment (field-independent basis, Debye):
    X=              0.0000    Y=              0.1036    Z=             -1.2392  Tot=              1.2435
 Quadrupole moment (field-independent basis, Debye-Ang):
   XX=            -35.0850   YY=            -34.3836   ZZ=            -36.2851
   XY=              0.0000   XZ=             -0.0000   YZ=             -0.1610

 ESP charges:
               1
     1  O   -0.328582
     2  C    0.460981
     3  Cl  -0.072063
     4  Cl  -0.060336
 Sum of ESP charges =   0.00000

 Summary of Natural Population Analysis:

                                       Natural Population
                Natural  -----------------------------------------------
    Atom  No    Charge         Core      Valence    Rydberg      Total
 -----------------------------------------------------------------------
      O    1   -0.46057      1.99951     6.36258    0.09848     8.46057
      C    2    0.42078      1.99941     3.45919    0.12063     5.57922
     Cl    3    0.01170      9.99937     6.84935    0.13958    16.98830
     Cl    4    0.02809      9.99933     6.83283    0.13975    16.97191
 =======================================================================
   * Total *    0.00000     23.99762    23.50395    0.49843    48.00000

 Normal termination of Gaussian 16 at Sat Sep  3 23:35:27 2022.
