 Gaussian 16, Revision C.01,
 Gaussian 16:  EM64L-G16RevC.01  3-Jul-2019

 ----------------------------------------------------------------------
 # qcisd/aug-cc-pvtz nosymm density=current pop=(chelpg,hirshfeld,npa,d
 ipole)
 ----------------------------------------------------------------------

 ------------------
 cl2co-wavefunction
 ------------------
 Symbolic Z-matrix:
 Charge =  0 Multiplicity = 1

                          Input orientation:
 ---------------------------------------------------------------------
 Center     Atomic      Atomic             Coordinates (Angstroms)
 Number     Number       Type             X           Y           Z
 ---------------------------------------------------------------------
      1          8           0        0.000000    0.000000    0.673397
      2          6           0        0.000000    0.000000   -0.494687
      3         17           0        0.000000   -1.446870   -1.469805
      4         17           0        0.000000    1.446870   -1.469805
 ---------------------------------------------------------------------

 SCF Done:  E(RHF) =  -1031.80359195     A.U. after   12 cycles
 E2 =    -0.7781534916D+00 EUMP2 =    -0.10325817454435D+04

 Alpha  occ. eigenvalues -- -104.88920-104.88920 -20.62416 -11.47441 -10.61368
 Alpha  occ. eigenvalues --  -10.61367  -8.08046  -8.08045  -8.07834  -8.07834
 Alpha  occ. eigenvalues --   -8.07817  -8.07817  -1.49352  -1.20208  -1.13997
 Alpha  occ. eigenvalues --   -0.81187  -0.71075  -0.70378  -0.65244  -0.53076
 Alpha  occ. eigenvalues --   -0.50109  -0.49978  -0.49466  -0.47650
 Alpha virt. eigenvalues --    0.04798   0.06623   0.07943   0.08678   0.09494
 Alpha virt. eigenvalues --    0.09878   0.11374   0.12509   0.12783   0.13459
 Alpha virt. eigenvalues --    0.15739   0.15899   0.22022   0.22127   0.23629

 Mulliken charges:
               1
     1  O   -0.315309
     2  C    0.324863
     3  Cl  -0.004777
     4  Cl  -0.004777
 Sum of Mulliken charges =  -0.00000

 Dipole moment (field-independent basis, Debye):
    X=              0.0000    Y=              0.0000    Z=             -1.1813  Tot=              1.1813
 Quadrupole moment (field-independent basis, Debye-Ang):
   XX=            -35.0658   YY=            -34.4330   ZZ=            -36.3134
   XY=              0.0000   XZ=              0.0000   YZ=             -0.0000

 ESP charges:
               1
     1  O   -0.326955
     2  C    0.466396
     3  Cl  -0.069720
     4  Cl  -0.069720
 Sum of ESP charges =   0.00000

 Summary of Natural Population Analysis:

                                       Natural Population
                Natural  -----------------------------------------------
    Atom  No    Charge         Core      Valence    Rydberg      Total
 -----------------------------------------------------------------------
      O    1   -0.45896      1.99950     6.36005    0.09942     8.45896
      C    2    0.42627      1.99938     3.45365    0.12070     5.57373
     Cl    3    0.01635      9.99936     6.84456    0.13973    16.98365
     Cl    4    0.01635      9.99936     6.84456    0.13973    16.98365
 =======================================================================
   * Total *   -0.00000     23.99759    23.50283    0.49958    48.00000

 Normal termination of Gaussian 16 at Sat Sep  3 22:12:41 2022.
