 Gaussian 16, Revision C.01,
 Gaussian 16:  EM64L-G16RevC.01  3-Jul-2019

 ----------------------------------------------------------------------
 # qcisd/aug-cc-pvtz nosymm density=current pop=(chelpg,hirshfeld,npa,d
 ipole)
 ----------------------------------------------------------------------

 ------------------
 cl2co-wavefunction
 ------------------
 Symbolic Z-matrix:
 Charge =  0 Multiplicity = 1

                          Input orientation:
 ---------------------------------------------------------------------
 Center     Atomic      Atomic             Coordinates (Angstroms)
 Number     Number       Type             X           Y           Z
 ---------------------------------------------------------------------
      1          8           0        0.000000    0.000000    0.683397
      2          6           0        0.000000    0.000000   -0.484687
      3         17           0        0.000000   -1.446870   -1.469805
      4         17           0        0.000000    1.446870   -1.469805
 ---------------------------------------------------------------------

 SCF Done:  E(RHF) =  -1031.80336713     A.U. after   12 cycles
 E2 =    -0.7783977004D+00 EUMP2 =    -0.10325817648339D+04

 Alpha  occ. eigenvalues -- -104.88918-104.88918 -20.62576 -11.47565 -10.61354
 Alpha  occ. eigenvalues --  -10.61353  -8.08030  -8.08030  -8.07820  -8.07820
 Alpha  occ. eigenvalues --   -8.07803  -8.07803  -1.49414  -1.20079  -1.13856
 Alpha  occ. eigenvalues --   -0.81210  -0.71010  -0.70398  -0.65217  -0.53076
 Alpha  occ. eigenvalues --   -0.50068  -0.50032  -0.49410  -0.47652
 Alpha virt. eigenvalues --    0.04785   0.06628   0.07918   0.08692   0.09449
 Alpha virt. eigenvalues --    0.09821   0.11366   0.12497   0.12797   0.13441
 Alpha virt. eigenvalues --    0.15601   0.15908   0.21995   0.22147   0.23608

 Mulliken charges:
               1
     1  O   -0.313532
     2  C    0.329223
     3  Cl  -0.007846
     4  Cl  -0.007846
 Sum of Mulliken charges =  -0.00000

 Dipole moment (field-independent basis, Debye):
    X=             -0.0000    Y=             -0.0000    Z=             -1.1566  Tot=              1.1566
 Quadrupole moment (field-independent basis, Debye-Ang):
   XX=            -35.0858   YY=            -34.4963   ZZ=            -36.3303
   XY=             -0.0000   XZ=              0.0000   YZ=              0.0000

 ESP charges:
               1
     1  O   -0.324838
     2  C    0.465563
     3  Cl  -0.070362
     4  Cl  -0.070362
 Sum of ESP charges =  -0.00000

 Summary of Natural Population Analysis:

                                       Natural Population
                Natural  -----------------------------------------------
    Atom  No    Charge         Core      Valence    Rydberg      Total
 -----------------------------------------------------------------------
      O    1   -0.45802      1.99950     6.35906    0.09946     8.45802
      C    2    0.43160      1.99938     3.44874    0.12028     5.56840
     Cl    3    0.01321      9.99937     6.84770    0.13972    16.98679
     Cl    4    0.01321      9.99937     6.84770    0.13972    16.98679
 =======================================================================
   * Total *   -0.00000     23.99761    23.50321    0.49918    48.00000

 Normal termination of Gaussian 16 at Sun Sep  4 00:30:09 2022.
