 Gaussian 16, Revision C.01,
 Gaussian 16:  EM64L-G16RevC.01  3-Jul-2019

 ----------------------------------------------------------------------
 # qcisd/aug-cc-pvtz nosymm density=current pop=(chelpg,hirshfeld,npa,d
 ipole)
 ----------------------------------------------------------------------

 ------------------
 cl2co-wavefunction
 ------------------
 Symbolic Z-matrix:
 Charge =  0 Multiplicity = 1

                          Input orientation:
 ---------------------------------------------------------------------
 Center     Atomic      Atomic             Coordinates (Angstroms)
 Number     Number       Type             X           Y           Z
 ---------------------------------------------------------------------
      1          8           0        0.000000    0.000000    0.683397
      2          6           0        0.000000    0.000000   -0.494687
      3         17           0        0.000000   -1.446870   -1.479805
      4         17           0        0.000000    1.446870   -1.469805
 ---------------------------------------------------------------------

 SCF Done:  E(RHF) =  -1031.80261258     A.U. after   12 cycles
 E2 =    -0.7795330517D+00 EUMP2 =    -0.10325821456354D+04

 Alpha  occ. eigenvalues -- -104.89047-104.89018 -20.62464 -11.47691 -10.61486
 Alpha  occ. eigenvalues --  -10.61446  -8.08164  -8.08123  -8.07952  -8.07935
 Alpha  occ. eigenvalues --   -8.07913  -8.07896  -1.48617  -1.20217  -1.13982
 Alpha  occ. eigenvalues --   -0.81233  -0.70764  -0.70179  -0.64866  -0.53115
 Alpha  occ. eigenvalues --   -0.50153  -0.49932  -0.49495  -0.47708
 Alpha virt. eigenvalues --    0.04771   0.06611   0.07958   0.08611   0.09302
 Alpha virt. eigenvalues --    0.09812   0.11373   0.12498   0.12776   0.13437
 Alpha virt. eigenvalues --    0.15631   0.15888   0.22028   0.22162   0.23652

 Mulliken charges:
               1
     1  O   -0.319910
     2  C    0.327233
     3  Cl  -0.006256
     4  Cl  -0.001066
 Sum of Mulliken charges =  -0.00000

 Dipole moment (field-independent basis, Debye):
    X=              0.0000    Y=              0.0174    Z=             -1.2269  Tot=              1.2270
 Quadrupole moment (field-independent basis, Debye-Ang):
   XX=            -35.0949   YY=            -34.4153   ZZ=            -36.2817
   XY=              0.0000   XZ=             -0.0000   YZ=             -0.0160

 ESP charges:
               1
     1  O   -0.327407
     2  C    0.460312
     3  Cl  -0.067702
     4  Cl  -0.065202
 Sum of ESP charges =   0.00000

 Summary of Natural Population Analysis:

                                       Natural Population
                Natural  -----------------------------------------------
    Atom  No    Charge         Core      Valence    Rydberg      Total
 -----------------------------------------------------------------------
      O    1   -0.46013      1.99951     6.36211    0.09851     8.46013
      C    2    0.42347      1.99941     3.45671    0.12041     5.57653
     Cl    3    0.01654      9.99936     6.84453    0.13957    16.98346
     Cl    4    0.02012      9.99935     6.84080    0.13973    16.97988
 =======================================================================
   * Total *   -0.00000     23.99763    23.50416    0.49822    48.00000

 Normal termination of Gaussian 16 at Sun Sep  4 03:37:55 2022.
