 Gaussian 16, Revision C.01,
 Gaussian 16:  EM64L-G16RevC.01  3-Jul-2019

 ----------------------------------------------------------------------
 # qcisd/aug-cc-pvtz nosymm density=current pop=(chelpg,hirshfeld,npa,d
 ipole)
 ----------------------------------------------------------------------

 ------------------
 cl2co-wavefunction
 ------------------
 Symbolic Z-matrix:
 Charge =  0 Multiplicity = 1

                          Input orientation:
 ---------------------------------------------------------------------
 Center     Atomic      Atomic             Coordinates (Angstroms)
 Number     Number       Type             X           Y           Z
 ---------------------------------------------------------------------
      1          8           0        0.000000    0.000000    0.683397
      2          6           0        0.000000    0.000000   -0.494687
      3         17           0        0.000000   -1.456870   -1.469805
      4         17           0        0.000000    1.446870   -1.469805
 ---------------------------------------------------------------------

 SCF Done:  E(RHF) =  -1031.80261245     A.U. after   12 cycles
 E2 =    -0.7794867727D+00 EUMP2 =    -0.10325820992215D+04

 Alpha  occ. eigenvalues -- -104.89112-104.88989 -20.62454 -11.47700 -10.61546
 Alpha  occ. eigenvalues --  -10.61410  -8.08224  -8.08086  -8.08012  -8.07995
 Alpha  occ. eigenvalues --   -8.07877  -8.07860  -1.48617  -1.20124  -1.13994
 Alpha  occ. eigenvalues --   -0.81227  -0.70771  -0.70137  -0.64843  -0.53063
 Alpha  occ. eigenvalues --   -0.50181  -0.49902  -0.49512  -0.47737
 Alpha virt. eigenvalues --    0.04765   0.06608   0.07966   0.08622   0.09296
 Alpha virt. eigenvalues --    0.09764   0.11377   0.12510   0.12773   0.13443
 Alpha virt. eigenvalues --    0.15596   0.15879   0.22027   0.22132   0.23643

 Mulliken charges:
               1
     1  O   -0.320089
     2  C    0.328631
     3  Cl  -0.008448
     4  Cl  -0.000095
 Sum of Mulliken charges =  -0.00000

 Dipole moment (field-independent basis, Debye):
    X=             -0.0000    Y=              0.0372    Z=             -1.2234  Tot=              1.2240
 Quadrupole moment (field-independent basis, Debye-Ang):
   XX=            -35.1001   YY=            -34.3873   ZZ=            -36.3112
   XY=              0.0000   XZ=             -0.0000   YZ=             -0.0571

 ESP charges:
               1
     1  O   -0.325323
     2  C    0.457146
     3  Cl  -0.068350
     4  Cl  -0.063473
 Sum of ESP charges =   0.00000

 Summary of Natural Population Analysis:

                                       Natural Population
                Natural  -----------------------------------------------
    Atom  No    Charge         Core      Valence    Rydberg      Total
 -----------------------------------------------------------------------
      O    1   -0.46047      1.99951     6.36239    0.09857     8.46047
      C    2    0.42403      1.99940     3.45625    0.12032     5.57597
     Cl    3    0.01479      9.99937     6.84632    0.13952    16.98521
     Cl    4    0.02165      9.99935     6.83934    0.13966    16.97835
 =======================================================================
   * Total *   -0.00000     23.99763    23.50430    0.49807    48.00000

 Normal termination of Gaussian 16 at Sun Sep  4 02:45:05 2022.
