 Gaussian 16, Revision C.01,
 Gaussian 16:  EM64L-G16RevC.01  3-Jul-2019

 ----------------------------------------------------------------------
 # qcisd/aug-cc-pvtz nosymm density=current pop=(chelpg,hirshfeld,npa,d
 ipole)
 ----------------------------------------------------------------------

 ------------------
 cl2co-wavefunction
 ------------------
 Symbolic Z-matrix:
 Charge =  0 Multiplicity = 1

                          Input orientation:
 ---------------------------------------------------------------------
 Center     Atomic      Atomic             Coordinates (Angstroms)
 Number     Number       Type             X           Y           Z
 ---------------------------------------------------------------------
      1          8           0        0.000000    0.000000    0.683397
      2          6           0       -0.010000    0.000000   -0.494687
      3         17           0        0.000000   -1.446870   -1.469805
      4         17           0        0.000000    1.446870   -1.469805
 ---------------------------------------------------------------------

 SCF Done:  E(RHF) =  -1031.80271120     A.U. after   12 cycles
 E2 =    -0.7794181632D+00 EUMP2 =    -0.10325821293604D+04

 Alpha  occ. eigenvalues -- -104.89034-104.89033 -20.62385 -11.47630 -10.61474
 Alpha  occ. eigenvalues --  -10.61473  -8.08151  -8.08151  -8.07940  -8.07939
 Alpha  occ. eigenvalues --   -8.07922  -8.07922  -1.48585  -1.20279  -1.14052
 Alpha  occ. eigenvalues --   -0.81223  -0.70797  -0.70167  -0.64879  -0.53115
 Alpha  occ. eigenvalues --   -0.50174  -0.49903  -0.49522  -0.47705
 Alpha virt. eigenvalues --    0.04776   0.06608   0.07970   0.08604   0.09315
 Alpha virt. eigenvalues --    0.09845   0.11377   0.12504   0.12770   0.13445
 Alpha virt. eigenvalues --    0.15706   0.15883   0.22043   0.22150   0.23638

 Mulliken charges:
               1
     1  O   -0.320844
     2  C    0.325125
     3  Cl  -0.002141
     4  Cl  -0.002141
 Sum of Mulliken charges =  -0.00000

 Dipole moment (field-independent basis, Debye):
    X=             -0.0103    Y=              0.0000    Z=             -1.2392  Tot=              1.2392
 Quadrupole moment (field-independent basis, Debye-Ang):
   XX=            -35.0846   YY=            -34.3840   ZZ=            -36.2853
   XY=              0.0000   XZ=             -0.0142   YZ=             -0.0000

 ESP charges:
               1
     1  O   -0.216819
     2  C    0.214191
     3  Cl   0.001314
     4  Cl   0.001314
 Sum of ESP charges =  -0.00000

 Summary of Natural Population Analysis:

                                       Natural Population
                Natural  -----------------------------------------------
    Atom  No    Charge         Core      Valence    Rydberg      Total
 -----------------------------------------------------------------------
      O    1   -0.46060      1.99951     6.36260    0.09849     8.46060
      C    2    0.42081      1.99941     3.45917    0.12061     5.57919
     Cl    3    0.01990      9.99935     6.84110    0.13966    16.98010
     Cl    4    0.01990      9.99935     6.84110    0.13966    16.98010
 =======================================================================
   * Total *   -0.00000     23.99762    23.50397    0.49841    48.00000

 Normal termination of Gaussian 16 at Sat Sep  3 23:06:44 2022.
