 Gaussian 16, Revision C.01,
 Gaussian 16:  EM64L-G16RevC.01  3-Jul-2019

 ----------------------------------------------------------------------
 # qcisd/aug-cc-pvtz nosymm density=current pop=(chelpg,hirshfeld,npa,d
 ipole)
 ----------------------------------------------------------------------

 ------------------
 cl2co-wavefunction
 ------------------
 Symbolic Z-matrix:
 Charge =  0 Multiplicity = 1

                          Input orientation:
 ---------------------------------------------------------------------
 Center     Atomic      Atomic             Coordinates (Angstroms)
 Number     Number       Type             X           Y           Z
 ---------------------------------------------------------------------
      1          8           0        0.000000    0.000000    0.683397
      2          6           0        0.000000    0.000000   -0.494687
      3         17           0        0.000000   -1.436870   -1.469805
      4         17           0        0.000000    1.446870   -1.469805
 ---------------------------------------------------------------------

 SCF Done:  E(RHF) =  -1031.80281047     A.U. after   12 cycles
 E2 =    -0.7793380270D+00 EUMP2 =    -0.10325821484992D+04

 Alpha  occ. eigenvalues -- -104.89077-104.88955 -20.62316 -11.47557 -10.61536
 Alpha  occ. eigenvalues --  -10.61400  -8.08215  -8.08078  -8.08002  -8.07984
 Alpha  occ. eigenvalues --   -8.07867  -8.07850  -1.48558  -1.20446  -1.14104
 Alpha  occ. eigenvalues --   -0.81220  -0.70829  -0.70196  -0.64922  -0.53168
 Alpha  occ. eigenvalues --   -0.50178  -0.49892  -0.49534  -0.47671
 Alpha virt. eigenvalues --    0.04789   0.06608   0.07974   0.08592   0.09350
 Alpha virt. eigenvalues --    0.09914   0.11377   0.12497   0.12766   0.13448
 Alpha virt. eigenvalues --    0.15806   0.15888   0.22060   0.22168   0.23681

 Mulliken charges:
               1
     1  O   -0.321509
     2  C    0.321358
     3  Cl   0.004310
     4  Cl  -0.004160
 Sum of Mulliken charges =  -0.00000

 Dipole moment (field-independent basis, Debye):
    X=             -0.0000    Y=             -0.0370    Z=             -1.2551  Tot=              1.2557
 Quadrupole moment (field-independent basis, Debye-Ang):
   XX=            -35.0696   YY=            -34.3809   ZZ=            -36.2587
   XY=              0.0000   XZ=              0.0000   YZ=              0.0568

 ESP charges:
               1
     1  O   -0.330792
     2  C    0.462460
     3  Cl  -0.063392
     4  Cl  -0.068275
 Sum of ESP charges =   0.00000

 Summary of Natural Population Analysis:

                                       Natural Population
                Natural  -----------------------------------------------
    Atom  No    Charge         Core      Valence    Rydberg      Total
 -----------------------------------------------------------------------
      O    1   -0.46074      1.99951     6.36283    0.09841     8.46074
      C    2    0.41757      1.99941     3.46211    0.12092     5.58243
     Cl    3    0.02505      9.99933     6.83581    0.13981    16.97495
     Cl    4    0.01813      9.99935     6.84287    0.13965    16.98187
 =======================================================================
   * Total *    0.00000     23.99761    23.50361    0.49878    48.00000

 Normal termination of Gaussian 16 at Sun Sep  4 02:17:30 2022.
