 Gaussian 16, Revision C.01,
 Gaussian 16:  EM64L-G16RevC.01  3-Jul-2019

 ----------------------------------------------------------------------
 # qcisd/aug-cc-pvtz nosymm density=current pop=(chelpg,hirshfeld,npa,d
 ipole)
 ----------------------------------------------------------------------

 ------------------
 cl2co-wavefunction
 ------------------
 Symbolic Z-matrix:
 Charge =  0 Multiplicity = 1

                          Input orientation:
 ---------------------------------------------------------------------
 Center     Atomic      Atomic             Coordinates (Angstroms)
 Number     Number       Type             X           Y           Z
 ---------------------------------------------------------------------
      1          8           0        0.000000    0.000000    0.683397
      2          6           0        0.000000    0.000000   -0.504687
      3         17           0        0.000000   -1.446870   -1.469805
      4         17           0        0.000000    1.446870   -1.469805
 ---------------------------------------------------------------------

 SCF Done:  E(RHF) =  -1031.80177641     A.U. after   12 cycles
 E2 =    -0.7804230375D+00 EUMP2 =    -0.10325821994444D+04

 Alpha  occ. eigenvalues -- -104.89147-104.89147 -20.62194 -11.47689 -10.61592
 Alpha  occ. eigenvalues --  -10.61591  -8.08271  -8.08271  -8.08058  -8.08058
 Alpha  occ. eigenvalues --   -8.08040  -8.08040  -1.47777  -1.20476  -1.14250
 Alpha  occ. eigenvalues --   -0.81245  -0.70606  -0.69931  -0.64572  -0.53149
 Alpha  occ. eigenvalues --   -0.50277  -0.49761  -0.49640  -0.47745
 Alpha virt. eigenvalues --    0.04770   0.06588   0.08021   0.08479   0.09241
 Alpha virt. eigenvalues --    0.09857   0.11389   0.12512   0.12743   0.13452
 Alpha virt. eigenvalues --    0.15799   0.15859   0.22092   0.22150   0.23714

 Mulliken charges:
               1
     1  O   -0.327800
     2  C    0.320718
     3  Cl   0.003541
     4  Cl   0.003541
 Sum of Mulliken charges =  -0.00000

 Dipole moment (field-independent basis, Debye):
    X=             -0.0000    Y=              0.0000    Z=             -1.3207  Tot=              1.3207
 Quadrupole moment (field-independent basis, Debye-Ang):
   XX=            -35.0840   YY=            -34.2719   ZZ=            -36.2396
   XY=              0.0000   XZ=             -0.0000   YZ=             -0.0000

 ESP charges:
               1
     1  O   -0.332272
     2  C    0.456401
     3  Cl  -0.062064
     4  Cl  -0.062064
 Sum of ESP charges =  -0.00000

 Summary of Natural Population Analysis:

                                       Natural Population
                Natural  -----------------------------------------------
    Atom  No    Charge         Core      Valence    Rydberg      Total
 -----------------------------------------------------------------------
      O    1   -0.46317      1.99952     6.36612    0.09753     8.46317
      C    2    0.41011      1.99943     3.46952    0.12094     5.58989
     Cl    3    0.02653      9.99934     6.83453    0.13961    16.97347
     Cl    4    0.02653      9.99934     6.83453    0.13961    16.97347
 =======================================================================
   * Total *    0.00000     23.99762    23.50468    0.49769    48.00000

 Normal termination of Gaussian 16 at Sun Sep  4 00:57:04 2022.
