 Gaussian 16, Revision C.01,
 Gaussian 16:  EM64L-G16RevC.01  3-Jul-2019

 ----------------------------------------------------------------------
 # qcisd/aug-cc-pvtz nosymm density=current pop=(chelpg,hirshfeld,npa,d
 ipole)
 ----------------------------------------------------------------------

 ------------------
 cl2co-wavefunction
 ------------------
 Symbolic Z-matrix:
 Charge =  0 Multiplicity = 1

                          Input orientation:
 ---------------------------------------------------------------------
 Center     Atomic      Atomic             Coordinates (Angstroms)
 Number     Number       Type             X           Y           Z
 ---------------------------------------------------------------------
      1          8           0        0.010000    0.000000    0.683397
      2          6           0        0.000000    0.000000   -0.494687
      3         17           0        0.000000   -1.446870   -1.469805
      4         17           0        0.000000    1.446870   -1.469805
 ---------------------------------------------------------------------

 SCF Done:  E(RHF) =  -1031.80273352     A.U. after   12 cycles
 E2 =    -0.7794146348D+00 EUMP2 =    -0.10325821481509D+04

 Alpha  occ. eigenvalues -- -104.89034-104.89034 -20.62385 -11.47629 -10.61474
 Alpha  occ. eigenvalues --  -10.61473  -8.08152  -8.08151  -8.07940  -8.07940
 Alpha  occ. eigenvalues --   -8.07923  -8.07923  -1.48584  -1.20280  -1.14053
 Alpha  occ. eigenvalues --   -0.81223  -0.70797  -0.70167  -0.64880  -0.53115
 Alpha  occ. eigenvalues --   -0.50174  -0.49903  -0.49524  -0.47705
 Alpha virt. eigenvalues --    0.04777   0.06608   0.07970   0.08606   0.09321
 Alpha virt. eigenvalues --    0.09842   0.11377   0.12504   0.12770   0.13446
 Alpha virt. eigenvalues --    0.15701   0.15883   0.22043   0.22150   0.23657

 Mulliken charges:
               1
     1  O   -0.320834
     2  C    0.325072
     3  Cl  -0.002119
     4  Cl  -0.002119
 Sum of Mulliken charges =  -0.00000

 Dipole moment (field-independent basis, Debye):
    X=             -0.0104    Y=             -0.0000    Z=             -1.2394  Tot=              1.2395
 Quadrupole moment (field-independent basis, Debye-Ang):
   XX=            -35.0851   YY=            -34.3835   ZZ=            -36.2849
   XY=             -0.0000   XZ=             -0.0205   YZ=              0.0000

 ESP charges:
               1
     1  O   -0.216839
     2  C    0.214182
     3  Cl   0.001328
     4  Cl   0.001328
 Sum of ESP charges =  -0.00000

 Summary of Natural Population Analysis:

                                       Natural Population
                Natural  -----------------------------------------------
    Atom  No    Charge         Core      Valence    Rydberg      Total
 -----------------------------------------------------------------------
      O    1   -0.46062      1.99951     6.36262    0.09849     8.46062
      C    2    0.42079      1.99941     3.45919    0.12062     5.57921
     Cl    3    0.01991      9.99935     6.84108    0.13966    16.98009
     Cl    4    0.01991      9.99935     6.84108    0.13966    16.98009
 =======================================================================
   * Total *    0.00000     23.99762    23.50397    0.49841    48.00000

 Normal termination of Gaussian 16 at Sat Sep  3 19:59:06 2022.
