 Gaussian 16, Revision C.01,
 Gaussian 16:  EM64L-G16RevC.01  3-Jul-2019

 ----------------------------------------------------------------------
 # qcisd/aug-cc-pvtz nosymm density=current pop=(chelpg,hirshfeld,npa,d
 ipole)
 ----------------------------------------------------------------------

 ------------------
 cl2co-wavefunction
 ------------------
 Symbolic Z-matrix:
 Charge =  0 Multiplicity = 1

                          Input orientation:
 ---------------------------------------------------------------------
 Center     Atomic      Atomic             Coordinates (Angstroms)
 Number     Number       Type             X           Y           Z
 ---------------------------------------------------------------------
      1          8           0        0.000000    0.000000    0.693397
      2          6           0        0.000000    0.000000   -0.494687
      3         17           0        0.000000   -1.446870   -1.469805
      4         17           0        0.000000    1.446870   -1.469805
 ---------------------------------------------------------------------

 SCF Done:  E(RHF) =  -1031.80155472     A.U. after   12 cycles
 E2 =    -0.7806682481D+00 EUMP2 =    -0.10325822229713D+04

 Alpha  occ. eigenvalues -- -104.89145-104.89145 -20.62353 -11.47814 -10.61579
 Alpha  occ. eigenvalues --  -10.61577  -8.08256  -8.08256  -8.08044  -8.08044
 Alpha  occ. eigenvalues --   -8.08027  -8.08026  -1.47834  -1.20351  -1.14109
 Alpha  occ. eigenvalues --   -0.81262  -0.70532  -0.69955  -0.64535  -0.53152
 Alpha  occ. eigenvalues --   -0.50236  -0.49823  -0.49579  -0.47758
 Alpha virt. eigenvalues --    0.04758   0.06593   0.07997   0.08481   0.09207
 Alpha virt. eigenvalues --    0.09804   0.11380   0.12499   0.12756   0.13434
 Alpha virt. eigenvalues --    0.15660   0.15868   0.22064   0.22173   0.23695

 Mulliken charges:
               1
     1  O   -0.326009
     2  C    0.325090
     3  Cl   0.000459
     4  Cl   0.000459
 Sum of Mulliken charges =  -0.00000

 Dipole moment (field-independent basis, Debye):
    X=             -0.0000    Y=              0.0000    Z=             -1.2965  Tot=              1.2965
 Quadrupole moment (field-independent basis, Debye-Ang):
   XX=            -35.1040   YY=            -34.3353   ZZ=            -36.2575
   XY=              0.0000   XZ=              0.0000   YZ=             -0.0000

 ESP charges:
               1
     1  O   -0.329871
     2  C    0.454968
     3  Cl  -0.062549
     4  Cl  -0.062549
 Sum of ESP charges =   0.00000

 Summary of Natural Population Analysis:

                                       Natural Population
                Natural  -----------------------------------------------
    Atom  No    Charge         Core      Valence    Rydberg      Total
 -----------------------------------------------------------------------
      O    1   -0.46217      1.99952     6.36508    0.09757     8.46217
      C    2    0.41543      1.99943     3.46462    0.12052     5.58457
     Cl    3    0.02337      9.99934     6.83769    0.13959    16.97663
     Cl    4    0.02337      9.99934     6.83769    0.13959    16.97663
 =======================================================================
   * Total *   -0.00000     23.99764    23.50509    0.49727    48.00000

 Normal termination of Gaussian 16 at Sat Sep  3 21:45:59 2022.
