 Gaussian 09, Revision B.01,
 Gaussian 09:  EM64L-G09RevB.01 12-Aug-2010

 -----------------------------------------------------
 # qcisd/aug-cc-pvtz nosymm density=current output=wfn
 -----------------------------------------------------

 ------------------
 cl2co-wavefunction
 ------------------
 Symbolic Z-matrix:
 Charge =  0 Multiplicity = 1

                          Input orientation:
 ---------------------------------------------------------------------
 Center     Atomic      Atomic             Coordinates (Angstroms)
 Number     Number       Type             X           Y           Z
 ---------------------------------------------------------------------
      1          8           0        0.000000    0.000000    0.673397
      2          6           0        0.000000    0.000000   -0.494687
      3         17           0        0.000000   -1.446870   -1.469805
      4         17           0        0.000000    1.446870   -1.469805
 ---------------------------------------------------------------------

 SCF Done:  E(RHF) =  -1031.80359195     A.U. after   12 cycles
 E2 =    -0.7781534944D+00 EUMP2 =    -0.10325817454459D+04

 Mulliken atomic charges:
              1
     1  O   -0.315309
     2  C    0.324863
     3  Cl  -0.004777
     4  Cl  -0.004777
 Sum of Mulliken atomic charges =   0.00000

 Dipole moment (field-independent basis, Debye):
    X=              0.0000    Y=              0.0000    Z=             -1.1813  Tot=              1.1813
 Quadrupole moment (field-independent basis, Debye-Ang):
   XX=            -35.0658   YY=            -34.4330   ZZ=            -36.3134
   XY=              0.0000   XZ=              0.0000   YZ=              0.0000

 Normal termination of Gaussian 09 at Sat Nov 27 12:27:38 2021.
