 Gaussian 09, Revision B.01,
 Gaussian 09:  EM64L-G09RevB.01 12-Aug-2010

 -----------------------------------------------------
 # qcisd/aug-cc-pvtz nosymm density=current output=wfn
 -----------------------------------------------------

 ------------------
 cl2co-wavefunction
 ------------------
 Symbolic Z-matrix:
 Charge =  0 Multiplicity = 1

                          Input orientation:
 ---------------------------------------------------------------------
 Center     Atomic      Atomic             Coordinates (Angstroms)
 Number     Number       Type             X           Y           Z
 ---------------------------------------------------------------------
      1          8           0        0.000000    0.000000    0.683397
      2          6           0        0.000000    0.000000   -0.494687
      3         17           0        0.000000   -1.446870   -1.469805
      4         17           0        0.000000    1.446870   -1.479805
 ---------------------------------------------------------------------

 SCF Done:  E(RHF) =  -1031.80261258     A.U. after   12 cycles
 E2 =    -0.7795330546D+00 EUMP2 =    -0.10325821456376D+04

 Mulliken atomic charges:
              1
     1  O   -0.319910
     2  C    0.327233
     3  Cl  -0.001066
     4  Cl  -0.006256
 Sum of Mulliken atomic charges =   0.00000

 Dipole moment (field-independent basis, Debye):
    X=              0.0000    Y=             -0.0174    Z=             -1.2269  Tot=              1.2270
 Quadrupole moment (field-independent basis, Debye-Ang):
   XX=            -35.0949   YY=            -34.4153   ZZ=            -36.2817
   XY=              0.0000   XZ=              0.0000   YZ=              0.0160

 Normal termination of Gaussian 09 at Sat Nov 27 18:46:36 2021.
