 Gaussian 09, Revision B.01,
 Gaussian 09:  EM64L-G09RevB.01 12-Aug-2010

 -----------------------------------------------------
 # qcisd/aug-cc-pvtz nosymm density=current output=wfn
 -----------------------------------------------------

 ------------------
 cl2co-wavefunction
 ------------------
 Symbolic Z-matrix:
 Charge =  0 Multiplicity = 1

                          Input orientation:
 ---------------------------------------------------------------------
 Center     Atomic      Atomic             Coordinates (Angstroms)
 Number     Number       Type             X           Y           Z
 ---------------------------------------------------------------------
      1          8           0        0.000000    0.000000    0.683397
      2          6           0        0.000000    0.000000   -0.494687
      3         17           0        0.000000   -1.456870   -1.469805
      4         17           0        0.000000    1.446870   -1.469805
 ---------------------------------------------------------------------

 SCF Done:  E(RHF) =  -1031.80261245     A.U. after   12 cycles
 E2 =    -0.7794867753D+00 EUMP2 =    -0.10325820992234D+04

 Mulliken atomic charges:
              1
     1  O   -0.320089
     2  C    0.328631
     3  Cl  -0.008448
     4  Cl  -0.000095
 Sum of Mulliken atomic charges =   0.00000

 Dipole moment (field-independent basis, Debye):
    X=              0.0000    Y=              0.0372    Z=             -1.2234  Tot=              1.2240
 Quadrupole moment (field-independent basis, Debye-Ang):
   XX=            -35.1001   YY=            -34.3873   ZZ=            -36.3112
   XY=              0.0000   XZ=              0.0000   YZ=             -0.0571

 Normal termination of Gaussian 09 at Sat Nov 27 15:59:21 2021.
