 Gaussian 09, Revision B.01,
 Gaussian 09:  EM64L-G09RevB.01 12-Aug-2010

 -----------------------------------------------------
 # qcisd/aug-cc-pvtz nosymm density=current output=wfn
 -----------------------------------------------------

 ------------------
 cl2co-wavefunction
 ------------------
 Symbolic Z-matrix:
 Charge =  0 Multiplicity = 1

                          Input orientation:
 ---------------------------------------------------------------------
 Center     Atomic      Atomic             Coordinates (Angstroms)
 Number     Number       Type             X           Y           Z
 ---------------------------------------------------------------------
      1          8           0        0.000000    0.000000    0.683397
      2          6           0        0.000000    0.000000   -0.494687
      3         17           0        0.000000   -1.446870   -1.469805
      4         17           0       -0.010000    1.446870   -1.469805
 ---------------------------------------------------------------------

 SCF Done:  E(RHF) =  -1031.80274087     A.U. after   12 cycles
 E2 =    -0.7794093711D+00 EUMP2 =    -0.10325821502396D+04

 Mulliken atomic charges:
              1
     1  O   -0.320805
     2  C    0.325078
     3  Cl  -0.002122
     4  Cl  -0.002151
 Sum of Mulliken atomic charges =   0.00000

 Dipole moment (field-independent basis, Debye):
    X=             -0.0001    Y=             -0.0001    Z=             -1.2392  Tot=              1.2392
 Quadrupole moment (field-independent basis, Debye-Ang):
   XX=            -35.0849   YY=            -34.3837   ZZ=            -36.2852
   XY=             -0.0024   XZ=              0.0031   YZ=              0.0002

 Normal termination of Gaussian 09 at Sat Nov 27 17:23:12 2021.
