 Gaussian 09, Revision B.01,
 Gaussian 09:  EM64L-G09RevB.01 12-Aug-2010

 -----------------------------------------------------
 # qcisd/aug-cc-pvtz nosymm density=current output=wfn
 -----------------------------------------------------

 ------------------
 cl2co-wavefunction
 ------------------
 Symbolic Z-matrix:
 Charge =  0 Multiplicity = 1

                          Input orientation:
 ---------------------------------------------------------------------
 Center     Atomic      Atomic             Coordinates (Angstroms)
 Number     Number       Type             X           Y           Z
 ---------------------------------------------------------------------
      1          8           0        0.000000    0.000000    0.683397
      2          6           0        0.000000   -0.010000   -0.494687
      3         17           0        0.000000   -1.446870   -1.469805
      4         17           0        0.000000    1.446870   -1.469805
 ---------------------------------------------------------------------

 SCF Done:  E(RHF) =  -1031.80267897     A.U. after   12 cycles
 E2 =    -0.7794236373D+00 EUMP2 =    -0.10325821026069D+04

 Mulliken atomic charges:
              1
     1  O   -0.320750
     2  C    0.324913
     3  Cl   0.006927
     4  Cl  -0.011090
 Sum of Mulliken atomic charges =   0.00000

 Dipole moment (field-independent basis, Debye):
    X=              0.0000    Y=             -0.1036    Z=             -1.2392  Tot=              1.2435
 Quadrupole moment (field-independent basis, Debye-Ang):
   XX=            -35.0850   YY=            -34.3836   ZZ=            -36.2851
   XY=              0.0000   XZ=              0.0000   YZ=              0.1610

 Normal termination of Gaussian 09 at Sat Nov 27 13:50:45 2021.
