 Gaussian 09, Revision B.01,
 Gaussian 09:  EM64L-G09RevB.01 12-Aug-2010

 -----------------------------------------------------
 # qcisd/aug-cc-pvtz nosymm density=current output=wfn
 -----------------------------------------------------

 ------------------
 cl2co-wavefunction
 ------------------
 Symbolic Z-matrix:
 Charge =  0 Multiplicity = 1

                          Input orientation:
 ---------------------------------------------------------------------
 Center     Atomic      Atomic             Coordinates (Angstroms)
 Number     Number       Type             X           Y           Z
 ---------------------------------------------------------------------
      1          8           0        0.000000    0.000000    0.683397
      2          6           0        0.000000    0.000000   -0.494687
      3         17           0        0.000000   -1.446870   -1.459805
      4         17           0        0.000000    1.446870   -1.469805
 ---------------------------------------------------------------------

 SCF Done:  E(RHF) =  -1031.80283603     A.U. after   12 cycles
 E2 =    -0.7792881797D+00 EUMP2 =    -0.10325821242051D+04

 Mulliken atomic charges:
              1
     1  O   -0.321694
     2  C    0.322866
     3  Cl   0.002003
     4  Cl  -0.003175
 Sum of Mulliken atomic charges =   0.00000

 Dipole moment (field-independent basis, Debye):
    X=              0.0000    Y=             -0.0172    Z=             -1.2514  Tot=              1.2515
 Quadrupole moment (field-independent basis, Debye-Ang):
   XX=            -35.0749   YY=            -34.3519   ZZ=            -36.2891
   XY=              0.0000   XZ=              0.0000   YZ=              0.0151

 Normal termination of Gaussian 09 at Sat Nov 27 16:20:22 2021.
